REMARK  Name = 3VB
REMARK  7 active torsions:
REMARK  status: ('A' for Active; 'I' for Inactive)
REMARK    1  A    between atoms: O_1  and  C_2
REMARK    2  A    between atoms: C_2  and  C_3
REMARK    3  A    between atoms: C_3  and  O_4
REMARK    4  A    between atoms: C_3  and  C_5
REMARK    5  A    between atoms: C_5  and  O_6
REMARK    6  A    between atoms: C_5  and  C_7
REMARK    7  A    between atoms: C_7  and  O_8
REMARK                            x       y       z     vdW  Elec       q    Type
REMARK                         _______ _______ _______ _____ _____    ______ ____
ROOT
ATOM      1  C   UNL A   1       0.670  -0.370  -0.317  1.00  0.00    +0.000 C 
ENDROOT
BRANCH   1   2
ATOM      2  O   UNL A   1       0.737  -1.234   0.819  1.00  0.00    +0.000 OA
ATOM      3  H   UNL A   1       0.664  -0.775   1.667  1.00  0.00    +0.000 HD
ENDBRANCH   1   2
BRANCH   1   4
ATOM      4  C   UNL A   1       1.813   0.645  -0.255  1.00  0.00    +0.000 C 
BRANCH   4   5
ATOM      5  O   UNL A   1       3.063  -0.037  -0.372  1.00  0.00    +0.000 OA
ATOM      6  H   UNL A   1       3.834   0.545  -0.340  1.00  0.00    +0.000 HD
ENDBRANCH   4   5
ENDBRANCH   1   4
BRANCH   1   7
ATOM      7  C   UNL A   1      -0.670   0.370  -0.317  1.00  0.00    +0.000 C 
BRANCH   7   8
ATOM      8  O   UNL A   1      -0.737   1.234   0.819  1.00  0.00    +0.000 OA
ATOM      9  H   UNL A   1      -0.664   0.775   1.667  1.00  0.00    +0.000 HD
ENDBRANCH   7   8
BRANCH   7  10
ATOM     10  C   UNL A   1      -1.813  -0.645  -0.255  1.00  0.00    +0.000 C 
BRANCH  10  11
ATOM     11  O   UNL A   1      -3.063   0.037  -0.372  1.00  0.00    +0.000 OA
ATOM     12  H   UNL A   1      -3.834  -0.545  -0.340  1.00  0.00    +0.000 HD
ENDBRANCH  10  11
ENDBRANCH   7  10
ENDBRANCH   1   7
TORSDOF 7
