REMARK  Name = AHR
REMARK  5 active torsions:
REMARK  status: ('A' for Active; 'I' for Inactive)
REMARK    1  A    between atoms: O_1  and  C_2
REMARK    2  A    between atoms: C_2  and  C_3
REMARK    3  A    between atoms: C_5  and  O_6
REMARK    4  A    between atoms: C_7  and  O_8
REMARK    5  A    between atoms: C_9  and  O_10
REMARK                            x       y       z     vdW  Elec       q    Type
REMARK                         _______ _______ _______ _____ _____    ______ ____
ROOT
ATOM      1  C   UNL     1       0.080   0.286   0.933  1.00  0.00    +0.000 C 
ATOM      2  O   UNL     1      -1.178  -0.158   0.403  1.00  0.00    +0.000 OA
ATOM      3  C   UNL     1       1.135  -0.126  -0.125  1.00  0.00    +0.000 C 
ATOM      4  C   UNL     1       0.339   0.108  -1.439  1.00  0.00    +0.000 C 
ATOM      5  C   UNL     1      -1.100  -0.261  -1.022  1.00  0.00    +0.000 C 
ENDROOT
BRANCH   3   6
ATOM      6  O   UNL     1       2.288   0.715  -0.064  1.00  0.00    +0.000 OA
ATOM      7  H   UNL     1       2.848   0.476  -0.815  1.00  0.00    +0.000 HD
ENDBRANCH   3   6
BRANCH   4   8
ATOM      8  O   UNL     1       0.804  -0.751  -2.481  1.00  0.00    +0.000 OA
ATOM      9  H   UNL     1       0.215  -0.619  -3.236  1.00  0.00    +0.000 HD
ENDBRANCH   4   8
BRANCH   5  10
ATOM     10  O   UNL     1      -2.028   0.642  -1.625  1.00  0.00    +0.000 OA
ATOM     11  H   UNL     1      -2.910   0.374  -1.331  1.00  0.00    +0.000 HD
ENDBRANCH   5  10
BRANCH   1  12
ATOM     12  C   UNL     1       0.369  -0.404   2.267  1.00  0.00    +0.000 C 
BRANCH  12  13
ATOM     13  O   UNL     1      -0.630  -0.037   3.219  1.00  0.00    +0.000 OA
ATOM     14  H   UNL     1      -0.411  -0.493   4.044  1.00  0.00    +0.000 HD
ENDBRANCH  12  13
ENDBRANCH   1  12
TORSDOF 5
