REMARK  Name = ALL
REMARK  6 active torsions:
REMARK  status: ('A' for Active; 'I' for Inactive)
REMARK    1  A    between atoms: C_1  and  O_7
REMARK    2  A    between atoms: C_2  and  O_8
REMARK    3  A    between atoms: C_3  and  O_9
REMARK    4  A    between atoms: C_4  and  O_10
REMARK    5  A    between atoms: C_5  and  C_6
REMARK    6  A    between atoms: C_6  and  O_12
REMARK                            x       y       z     vdW  Elec       q    Type
REMARK                         _______ _______ _______ _____ _____    ______ ____
ROOT
ATOM      1  C   UNL     1       0.981   1.141  -0.224  1.00  0.00    +0.000 C 
ATOM      2  C   UNL     1       1.650  -0.022   0.513  1.00  0.00    +0.000 C 
ATOM      3  C   UNL     1       0.892  -1.316   0.204  1.00  0.00    +0.000 C 
ATOM      4  C   UNL     1      -0.577  -1.143   0.604  1.00  0.00    +0.000 C 
ATOM      5  C   UNL     1      -1.160   0.064  -0.138  1.00  0.00    +0.000 C 
ATOM      6  O   UNL     1      -0.390   1.227   0.170  1.00  0.00    +0.000 OA
ENDROOT
BRANCH   1   7
ATOM      7  O   UNL     1       1.650   2.361   0.104  1.00  0.00    +0.000 OA
ATOM      8  H   UNL     1       1.278   3.141  -0.329  1.00  0.00    +0.000 HD
ENDBRANCH   1   7
BRANCH   2   9
ATOM      9  O   UNL     1       3.006  -0.147   0.078  1.00  0.00    +0.000 OA
ATOM     10  H   UNL     1       3.544   0.639   0.238  1.00  0.00    +0.000 HD
ENDBRANCH   2   9
BRANCH   3  11
ATOM     11  O   UNL     1       0.977  -1.598  -1.194  1.00  0.00    +0.000 OA
ATOM     12  H   UNL     1       1.880  -1.714  -1.518  1.00  0.00    +0.000 HD
ENDBRANCH   3  11
BRANCH   4  13
ATOM     13  O   UNL     1      -1.310  -2.318   0.253  1.00  0.00    +0.000 OA
ATOM     14  H   UNL     1      -0.991  -3.123   0.683  1.00  0.00    +0.000 HD
ENDBRANCH   4  13
BRANCH   5  15
ATOM     15  C   UNL     1      -2.609   0.280   0.301  1.00  0.00    +0.000 C 
BRANCH  15  16
ATOM     16  O   UNL     1      -3.190   1.332  -0.474  1.00  0.00    +0.000 OA
ATOM     17  H   UNL     1      -4.110   1.524  -0.249  1.00  0.00    +0.000 HD
ENDBRANCH  15  16
ENDBRANCH   5  15
TORSDOF 6
