REMARK  Name = ARA
REMARK  4 active torsions:
REMARK  status: ('A' for Active; 'I' for Inactive)
REMARK    1  A    between atoms: C_1  and  O_6
REMARK    2  A    between atoms: C_2  and  O_7
REMARK    3  A    between atoms: C_3  and  O_8
REMARK    4  A    between atoms: C_4  and  O_9
REMARK                            x       y       z     vdW  Elec       q    Type
REMARK                         _______ _______ _______ _____ _____    ______ ____
ROOT
ATOM      1  C   UNL     1       0.316  -0.253   1.356  1.00  0.00    +0.000 C 
ATOM      2  C   UNL     1      -0.817   0.217   0.443  1.00  0.00    +0.000 C 
ATOM      3  C   UNL     1      -0.716  -0.517  -0.900  1.00  0.00    +0.000 C 
ATOM      4  C   UNL     1       0.697  -0.321  -1.458  1.00  0.00    +0.000 C 
ATOM      5  C   UNL     1       1.716  -0.751  -0.401  1.00  0.00    +0.000 C 
ATOM      6  O   UNL     1       1.575   0.058   0.764  1.00  0.00    +0.000 OA
ENDROOT
BRANCH   1   7
ATOM      7  O   UNL     1       0.210   0.403   2.621  1.00  0.00    +0.000 OA
ATOM      8  H   UNL     1       0.938   0.077   3.167  1.00  0.00    +0.000 HD
ENDBRANCH   1   7
BRANCH   2   9
ATOM      9  O   UNL     1      -2.076  -0.073   1.055  1.00  0.00    +0.000 OA
ATOM     10  H   UNL     1      -2.094   0.402   1.896  1.00  0.00    +0.000 HD
ENDBRANCH   2   9
BRANCH   3  11
ATOM     11  O   UNL     1      -1.677   0.018  -1.813  1.00  0.00    +0.000 OA
ATOM     12  H   UNL     1      -1.578  -0.471  -2.641  1.00  0.00    +0.000 HD
ENDBRANCH   3  11
BRANCH   4  13
ATOM     13  O   UNL     1       0.896   1.056  -1.782  1.00  0.00    +0.000 OA
ATOM     14  H   UNL     1       1.796   1.135  -2.126  1.00  0.00    +0.000 HD
ENDBRANCH   4  13
TORSDOF 4
