REMARK  Name = BDR
REMARK  5 active torsions:
REMARK  status: ('A' for Active; 'I' for Inactive)
REMARK    1  A    between atoms: C_1  and  C_9
REMARK    2  A    between atoms: C_3  and  O_4
REMARK    3  A    between atoms: C_5  and  O_6
REMARK    4  A    between atoms: C_7  and  O_8
REMARK    5  A    between atoms: C_9  and  O_10
REMARK                            x       y       z     vdW  Elec       q    Type
REMARK                         _______ _______ _______ _____ _____    ______ ____
ROOT
ATOM      1  C   UNL     1       0.289  -0.315   0.986  1.00  0.00    +0.000 C 
ATOM      2  O   UNL     1      -1.069  -0.337   0.516  1.00  0.00    +0.000 OA
ATOM      3  C   UNL     1      -1.015  -0.388  -0.925  1.00  0.00    +0.000 C 
ATOM      4  C   UNL     1       0.147   0.573  -1.279  1.00  0.00    +0.000 C 
ATOM      5  C   UNL     1       1.153   0.302  -0.130  1.00  0.00    +0.000 C 
ENDROOT
BRANCH   3   6
ATOM      6  O   UNL     1      -2.244   0.072  -1.491  1.00  0.00    +0.000 OA
ATOM      7  H   UNL     1      -2.937  -0.525  -1.180  1.00  0.00    +0.000 HD
ENDBRANCH   3   6
BRANCH   4   8
ATOM      8  O   UNL     1       0.718   0.238  -2.545  1.00  0.00    +0.000 OA
ATOM      9  H   UNL     1       0.017   0.339  -3.203  1.00  0.00    +0.000 HD
ENDBRANCH   4   8
BRANCH   5  10
ATOM     10  O   UNL     1       2.163  -0.615  -0.555  1.00  0.00    +0.000 OA
ATOM     11  H   UNL     1       2.629  -0.196  -1.291  1.00  0.00    +0.000 HD
ENDBRANCH   5  10
BRANCH   1  12
ATOM     12  C   UNL     1       0.387   0.536   2.252  1.00  0.00    +0.000 C 
BRANCH  12  13
ATOM     13  O   UNL     1      -0.422  -0.039   3.279  1.00  0.00    +0.000 OA
ATOM     14  H   UNL     1      -0.331   0.526   4.057  1.00  0.00    +0.000 HD
ENDBRANCH  12  13
ENDBRANCH   1  12
TORSDOF 5
