REMARK  Name = BGC
REMARK  6 active torsions:
REMARK  status: ('A' for Active; 'I' for Inactive)
REMARK    1  A    between atoms: C_1  and  O_8
REMARK    2  A    between atoms: C_2  and  O_9
REMARK    3  A    between atoms: C_3  and  O_10
REMARK    4  A    between atoms: C_4  and  C_5
REMARK    5  A    between atoms: C_5  and  O_12
REMARK    6  A    between atoms: C_6  and  O_7
REMARK                            x       y       z     vdW  Elec       q    Type
REMARK                         _______ _______ _______ _____ _____    ______ ____
ROOT
ATOM      1  C   UNL     1      -1.599   0.273  -0.228  1.00  0.00    +0.000 C 
ATOM      2  C   UNL     1      -1.032  -1.069   0.244  1.00  0.00    +0.000 C 
ATOM      3  C   UNL     1       0.406  -1.210  -0.265  1.00  0.00    +0.000 C 
ATOM      4  C   UNL     1       1.234  -0.022   0.232  1.00  0.00    +0.000 C 
ATOM      5  C   UNL     1      -0.694   1.404   0.269  1.00  0.00    +0.000 C 
ATOM      6  O   UNL     1       0.635   1.195  -0.215  1.00  0.00    +0.000 OA
ENDROOT
BRANCH   5   7
ATOM      7  O   UNL     1      -1.186   2.655  -0.214  1.00  0.00    +0.000 OA
ATOM      8  H   UNL     1      -0.660   3.418   0.062  1.00  0.00    +0.000 HD
ENDBRANCH   5   7
BRANCH   1   9
ATOM      9  O   UNL     1      -2.915   0.448   0.302  1.00  0.00    +0.000 OA
ATOM     10  H   UNL     1      -3.336   1.279   0.043  1.00  0.00    +0.000 HD
ENDBRANCH   1   9
BRANCH   2  11
ATOM     11  O   UNL     1      -1.829  -2.135  -0.276  1.00  0.00    +0.000 OA
ATOM     12  H   UNL     1      -2.755  -2.104   0.001  1.00  0.00    +0.000 HD
ENDBRANCH   2  11
BRANCH   3  13
ATOM     13  O   UNL     1       0.971  -2.426   0.229  1.00  0.00    +0.000 OA
ATOM     14  H   UNL     1       0.493  -3.221  -0.044  1.00  0.00    +0.000 HD
ENDBRANCH   3  13
BRANCH   4  15
ATOM     15  C   UNL     1       2.657  -0.124  -0.322  1.00  0.00    +0.000 C 
BRANCH  15  16
ATOM     16  O   UNL     1       3.460   0.918   0.235  1.00  0.00    +0.000 OA
ATOM     17  H   UNL     1       4.377   0.915  -0.072  1.00  0.00    +0.000 HD
ENDBRANCH  15  16
ENDBRANCH   4  15
TORSDOF 6
