REMARK  Name = FRU
REMARK  7 active torsions:
REMARK  status: ('A' for Active; 'I' for Inactive)
REMARK    1  A    between atoms: C_1  and  C_2
REMARK    2  A    between atoms: C_1  and  O_7
REMARK    3  A    between atoms: C_2  and  O_8
REMARK    4  A    between atoms: C_3  and  O_9
REMARK    5  A    between atoms: C_4  and  O_10
REMARK    6  A    between atoms: C_5  and  C_6
REMARK    7  A    between atoms: C_6  and  O_12
REMARK                            x       y       z     vdW  Elec       q    Type
REMARK                         _______ _______ _______ _____ _____    ______ ____
ROOT
ATOM      1  C   UNL     1       0.144  -0.149  -1.090  1.00  0.00    +0.000 C 
ATOM      2  C   UNL     1      -1.304   0.188  -0.689  1.00  0.00    +0.000 C 
ATOM      3  C   UNL     1      -1.307   0.081   0.857  1.00  0.00    +0.000 C 
ATOM      4  C   UNL     1       0.198   0.230   1.193  1.00  0.00    +0.000 C 
ATOM      5  O   UNL     1       0.858  -0.467   0.115  1.00  0.00    +0.000 OA
ENDROOT
BRANCH   1   6
ATOM      6  O   UNL     1       0.154  -1.273  -1.972  1.00  0.00    +0.000 OA
ATOM      7  H   UNL     1       1.080  -1.452  -2.186  1.00  0.00    +0.000 HD
ENDBRANCH   1   6
BRANCH   2   8
ATOM      8  O   UNL     1      -2.215  -0.752  -1.261  1.00  0.00    +0.000 OA
ATOM      9  H   UNL     1      -3.101  -0.491  -0.977  1.00  0.00    +0.000 HD
ENDBRANCH   2   8
BRANCH   3  10
ATOM     10  O   UNL     1      -2.072   1.137   1.440  1.00  0.00    +0.000 OA
ATOM     11  H   UNL     1      -2.034   1.013   2.399  1.00  0.00    +0.000 HD
ENDBRANCH   3  10
BRANCH   1  12
ATOM     12  C   UNL     1       0.791   1.055  -1.776  1.00  0.00    +0.000 C 
BRANCH  12  13
ATOM     13  O   UNL     1       2.138   0.735  -2.130  1.00  0.00    +0.000 OA
ATOM     14  H   UNL     1       2.508   1.518  -2.558  1.00  0.00    +0.000 HD
ENDBRANCH  12  13
ENDBRANCH   1  12
BRANCH   4  15
ATOM     15  C   UNL     1       0.518  -0.427   2.536  1.00  0.00    +0.000 C 
BRANCH  15  16
ATOM     16  O   UNL     1       1.919  -0.319   2.798  1.00  0.00    +0.000 OA
ATOM     17  H   UNL     1       2.078  -0.745   3.651  1.00  0.00    +0.000 HD
ENDBRANCH  15  16
ENDBRANCH   4  15
TORSDOF 7
