REMARK  Name = GAL
REMARK  6 active torsions:
REMARK  status: ('A' for Active; 'I' for Inactive)
REMARK    1  A    between atoms: C_1  and  O_7
REMARK    2  A    between atoms: C_2  and  O_8
REMARK    3  A    between atoms: C_3  and  O_9
REMARK    4  A    between atoms: C_4  and  O_10
REMARK    5  A    between atoms: C_5  and  C_6
REMARK    6  A    between atoms: C_6  and  O_12
REMARK                            x       y       z     vdW  Elec       q    Type
REMARK                         _______ _______ _______ _____ _____    ______ ____
ROOT
ATOM      1  C   UNL     1       0.516   1.409  -0.191  1.00  0.00    +0.000 C 
ATOM      2  C   UNL     1       1.522   0.302   0.136  1.00  0.00    +0.000 C 
ATOM      3  C   UNL     1       1.103  -0.986  -0.578  1.00  0.00    +0.000 C 
ATOM      4  C   UNL     1      -0.322  -1.352  -0.152  1.00  0.00    +0.000 C 
ATOM      5  C   UNL     1      -1.258  -0.182  -0.468  1.00  0.00    +0.000 C 
ATOM      6  O   UNL     1      -0.793   0.992   0.202  1.00  0.00    +0.000 OA
ENDROOT
BRANCH   1   7
ATOM      7  O   UNL     1       0.870   2.599   0.517  1.00  0.00    +0.000 OA
ATOM      8  H   UNL     1       0.274   3.343   0.357  1.00  0.00    +0.000 HD
ENDBRANCH   1   7
BRANCH   2   9
ATOM      9  O   UNL     1       2.823   0.693  -0.308  1.00  0.00    +0.000 OA
ATOM     10  H   UNL     1       3.151   1.506   0.100  1.00  0.00    +0.000 HD
ENDBRANCH   2   9
BRANCH   3  11
ATOM     11  O   UNL     1       1.995  -2.044  -0.220  1.00  0.00    +0.000 OA
ATOM     12  H   UNL     1       2.918  -1.876  -0.455  1.00  0.00    +0.000 HD
ENDBRANCH   3  11
BRANCH   4  13
ATOM     13  O   UNL     1      -0.348  -1.618   1.251  1.00  0.00    +0.000 OA
ATOM     14  H   UNL     1       0.227  -2.347   1.524  1.00  0.00    +0.000 HD
ENDBRANCH   4  13
BRANCH   5  15
ATOM     15  C   UNL     1      -2.672  -0.516   0.009  1.00  0.00    +0.000 C 
BRANCH  15  16
ATOM     16  O   UNL     1      -3.567   0.525  -0.389  1.00  0.00    +0.000 OA
ATOM     17  H   UNL     1      -4.484   0.379  -0.119  1.00  0.00    +0.000 HD
ENDBRANCH  15  16
ENDBRANCH   5  15
TORSDOF 6
