REMARK  Name = GZL
REMARK  7 active torsions:
REMARK  status: ('A' for Active; 'I' for Inactive)
REMARK    1  A    between atoms: C_1  and  C_2
REMARK    2  A    between atoms: C_1  and  O_6
REMARK    3  A    between atoms: C_2  and  C_3
REMARK    4  A    between atoms: C_2  and  O_7
REMARK    5  A    between atoms: C_4  and  O_9
REMARK    6  A    between atoms: C_5  and  O_11
REMARK    7  A    between atoms: C_10  and  O_12
REMARK                            x       y       z     vdW  Elec       q    Type
REMARK                         _______ _______ _______ _____ _____    ______ ____
ROOT
ATOM      1  C   UNL     1       0.193   0.426  -0.504  1.00  0.00    +0.000 C 
ATOM      2  C   UNL     1      -0.857  -0.617  -0.934  1.00  0.00    +0.000 C 
ATOM      3  C   UNL     1      -1.864  -0.649   0.242  1.00  0.00    +0.000 C 
ATOM      4  O   UNL     1      -0.174   0.886   0.807  1.00  0.00    +0.000 OA
ATOM      5  C   UNL     1      -1.602   0.715   0.930  1.00  0.00    +0.000 C 
ENDROOT
BRANCH   2   6
ATOM      6  O   UNL     1      -1.507  -0.205  -2.138  1.00  0.00    +0.000 OA
ATOM      7  H   UNL     1      -2.178  -0.825  -2.455  1.00  0.00    +0.000 HD
ENDBRANCH   2   6
BRANCH   3   8
ATOM      8  O   UNL     1      -1.577  -1.731   1.129  1.00  0.00    +0.000 OA
ATOM      9  H   UNL     1      -2.181  -1.793   1.882  1.00  0.00    +0.000 HD
ENDBRANCH   3   8
BRANCH   5  10
ATOM     10  O   UNL     1      -2.295   1.764   0.249  1.00  0.00    +0.000 OA
ATOM     11  H   UNL     1      -2.165   2.639   0.639  1.00  0.00    +0.000 HD
ENDBRANCH   5  10
BRANCH   1  12
ATOM     12  C   UNL     1       1.579  -0.219  -0.461  1.00  0.00    +0.000 C 
BRANCH  12  13
ATOM     13  O   UNL     1       1.544  -1.368   0.389  1.00  0.00    +0.000 OA
ATOM     14  H   UNL     1       1.290  -1.174   1.302  1.00  0.00    +0.000 HD
ENDBRANCH  12  13
BRANCH  12  15
ATOM     15  C   UNL     1       2.593   0.788   0.086  1.00  0.00    +0.000 C 
BRANCH  15  16
ATOM     16  O   UNL     1       3.906   0.227   0.018  1.00  0.00    +0.000 OA
ATOM     17  H   UNL     1       4.601   0.812   0.349  1.00  0.00    +0.000 HD
ENDBRANCH  15  16
ENDBRANCH  12  15
ENDBRANCH   1  12
TORSDOF 7
