REMARK  Name = HPA
REMARK  0 active torsions:
REMARK  status: ('A' for Active; 'I' for Inactive)
REMARK                            x       y       z     vdW  Elec       q    Type
REMARK                         _______ _______ _______ _____ _____    ______ ____
ROOT
ATOM      1  N   UNL     1       0.203   0.000   1.999  1.00  0.00    +0.000 N 
ATOM      2  C   UNL     1       1.492   0.000   1.574  1.00  0.00    +0.000 A 
ATOM      3  N   UNL     1       1.807   0.000   0.311  1.00  0.00    +0.000 NA
ATOM      4  C   UNL     1       0.855   0.000  -0.644  1.00  0.00    +0.000 A 
ATOM      5  C   UNL     1      -0.489  -0.005  -0.266  1.00  0.00    +0.000 A 
ATOM      6  C   UNL     1      -0.810   0.000   1.104  1.00  0.00    +0.000 A 
ATOM      7  O   UNL     1      -1.972   0.001   1.475  1.00  0.00    +0.000 OA
ATOM      8  N   UNL     1      -1.219   0.000  -1.435  1.00  0.00    +0.000 N 
ATOM      9  C   UNL     1      -0.335   0.000  -2.455  1.00  0.00    +0.000 A 
ATOM     10  N   UNL     1       0.884   0.000  -1.987  1.00  0.00    +0.000 NA
ATOM     11  H   UNL     1       0.008   0.000   2.949  1.00  0.00    +0.000 HD
ATOM     12  H   UNL     1      -2.186   0.000  -1.511  1.00  0.00    +0.000 HD
ENDROOT
TORSDOF 0
