REMARK  Name = INS
REMARK  6 active torsions:
REMARK  status: ('A' for Active; 'I' for Inactive)
REMARK    1  A    between atoms: C_1  and  O_7
REMARK    2  A    between atoms: C_2  and  O_8
REMARK    3  A    between atoms: C_3  and  O_9
REMARK    4  A    between atoms: C_4  and  O_10
REMARK    5  A    between atoms: C_5  and  O_11
REMARK    6  A    between atoms: C_6  and  O_12
REMARK                            x       y       z     vdW  Elec       q    Type
REMARK                         _______ _______ _______ _____ _____    ______ ____
ROOT
ATOM      1  C   UNL     1       1.212  -0.837   0.555  1.00  0.00    +0.000 C 
ATOM      2  C   UNL     1      -0.074  -1.571   0.169  1.00  0.00    +0.000 C 
ATOM      3  C   UNL     1      -1.283  -0.720   0.561  1.00  0.00    +0.000 C 
ATOM      4  C   UNL     1      -1.222   0.622  -0.172  1.00  0.00    +0.000 C 
ATOM      5  C   UNL     1       0.064   1.356   0.214  1.00  0.00    +0.000 C 
ATOM      6  C   UNL     1       1.274   0.504  -0.177  1.00  0.00    +0.000 C 
ENDROOT
BRANCH   1   7
ATOM      7  O   UNL     1       2.342  -1.632   0.190  1.00  0.00    +0.000 OA
ATOM      8  H   UNL     1       3.194  -1.228   0.405  1.00  0.00    +0.000 HD
ENDBRANCH   1   7
BRANCH   2   9
ATOM      9  O   UNL     1      -0.088  -1.797  -1.241  1.00  0.00    +0.000 OA
ATOM     10  H   UNL     1      -0.876  -2.259  -1.558  1.00  0.00    +0.000 HD
ENDBRANCH   2   9
BRANCH   3  11
ATOM     11  O   UNL     1      -2.484  -1.405   0.201  1.00  0.00    +0.000 OA
ATOM     12  H   UNL     1      -3.293  -0.922   0.420  1.00  0.00    +0.000 HD
ENDBRANCH   3  11
BRANCH   4  13
ATOM     13  O   UNL     1      -2.352   1.417   0.194  1.00  0.00    +0.000 OA
ATOM     14  H   UNL     1      -2.378   2.284  -0.234  1.00  0.00    +0.000 HD
ENDBRANCH   4  13
BRANCH   5  15
ATOM     15  O   UNL     1       0.122   2.609  -0.470  1.00  0.00    +0.000 OA
ATOM     16  H   UNL     1       0.913   3.129  -0.273  1.00  0.00    +0.000 HD
ENDBRANCH   5  15
BRANCH   6  17
ATOM     17  O   UNL     1       2.475   1.189   0.183  1.00  0.00    +0.000 OA
ATOM     18  H   UNL     1       2.581   2.050  -0.245  1.00  0.00    +0.000 HD
ENDBRANCH   6  17
TORSDOF 6
