REMARK  Name = PAV
REMARK  5 active torsions:
REMARK  status: ('A' for Active; 'I' for Inactive)
REMARK    1  A    between atoms: O_1  and  C_2
REMARK    2  A    between atoms: C_2  and  C_3
REMARK    3  A    between atoms: C_6  and  O_7
REMARK    4  A    between atoms: C_8  and  O_9
REMARK    5  A    between atoms: C_8  and  O_10
REMARK                            x       y       z     vdW  Elec       q    Type
REMARK                         _______ _______ _______ _____ _____    ______ ____
ROOT
ATOM      1  C   UNL     1      -0.200  -0.042   1.072  1.00  0.00    +0.000 C 
ATOM      2  C   UNL     1       0.409   0.845   2.159  1.00  0.00    +0.000 C 
ATOM      3  O   UNL     1      -1.519   0.424   0.743  1.00  0.00    +0.000 OA
ATOM      4  C   UNL     1      -1.713   0.181  -0.666  1.00  0.00    +0.000 C 
ATOM      5  C   UNL     1      -0.341   0.548  -1.287  1.00  0.00    +0.000 C 
ATOM      6  C   UNL     1       0.650   0.038  -0.209  1.00  0.00    +0.000 C 
ENDROOT
BRANCH   1   7
ATOM      7  O   UNL     1      -0.263  -1.395   1.529  1.00  0.00    +0.000 OA
ATOM      8  H   UNL     1      -0.808  -1.395   2.328  1.00  0.00    +0.000 HD
ENDBRANCH   1   7
BRANCH   5   9
ATOM      9  O   UNL     1      -0.143  -0.137  -2.526  1.00  0.00    +0.000 OA
ATOM     10  H   UNL     1      -0.845   0.154  -3.122  1.00  0.00    +0.000 HD
ENDBRANCH   5   9
BRANCH   6  11
ATOM     11  O   UNL     1       1.723   0.966  -0.038  1.00  0.00    +0.000 OA
ATOM     12  H   UNL     1       2.182   1.023  -0.888  1.00  0.00    +0.000 HD
ENDBRANCH   6  11
BRANCH   6  13
ATOM     13  O   UNL     1       1.154  -1.251  -0.562  1.00  0.00    +0.000 OA
ATOM     14  H   UNL     1       1.624  -1.147  -1.401  1.00  0.00    +0.000 HD
ENDBRANCH   6  13
TORSDOF 4
