REMARK  Name = RIP
REMARK  4 active torsions:
REMARK  status: ('A' for Active; 'I' for Inactive)
REMARK    1  A    between atoms: C_1  and  O_6
REMARK    2  A    between atoms: C_2  and  O_7
REMARK    3  A    between atoms: C_3  and  O_8
REMARK    4  A    between atoms: C_4  and  O_9
REMARK                            x       y       z     vdW  Elec       q    Type
REMARK                         _______ _______ _______ _____ _____    ______ ____
ROOT
ATOM      1  C   UNL     1       0.538   0.292  -1.219  1.00  0.00    +0.000 C 
ATOM      2  C   UNL     1      -0.651  -0.575  -0.803  1.00  0.00    +0.000 C 
ATOM      3  C   UNL     1      -0.960  -0.326   0.677  1.00  0.00    +0.000 C 
ATOM      4  C   UNL     1       0.322  -0.541   1.489  1.00  0.00    +0.000 C 
ATOM      5  C   UNL     1       1.438   0.324   0.899  1.00  0.00    +0.000 C 
ATOM      6  O   UNL     1       1.686  -0.061  -0.450  1.00  0.00    +0.000 OA
ENDROOT
BRANCH   1   7
ATOM      7  O   UNL     1       0.812   0.086  -2.606  1.00  0.00    +0.000 OA
ATOM      8  H   UNL     1       1.563   0.653  -2.829  1.00  0.00    +0.000 HD
ENDBRANCH   1   7
BRANCH   2   9
ATOM      9  O   UNL     1      -1.791  -0.235  -1.595  1.00  0.00    +0.000 OA
ATOM     10  H   UNL     1      -1.551  -0.402  -2.516  1.00  0.00    +0.000 HD
ENDBRANCH   2   9
BRANCH   3  11
ATOM     11  O   UNL     1      -1.419   1.015   0.852  1.00  0.00    +0.000 OA
ATOM     12  H   UNL     1      -1.601   1.128   1.795  1.00  0.00    +0.000 HD
ENDBRANCH   3  11
BRANCH   4  13
ATOM     13  O   UNL     1       0.095  -0.167   2.849  1.00  0.00    +0.000 OA
ATOM     14  H   UNL     1       0.926  -0.315   3.322  1.00  0.00    +0.000 HD
ENDBRANCH   4  13
TORSDOF 4
