REMARK  Name = WEB
REMARK  6 active torsions:
REMARK  status: ('A' for Active; 'I' for Inactive)
REMARK    1  A    between atoms: C_1  and  O_2
REMARK    2  A    between atoms: C_1  and  C_3
REMARK    3  A    between atoms: C_3  and  O_4
REMARK    4  A    between atoms: C_5  and  O_6
REMARK    5  A    between atoms: C_7  and  O_8
REMARK    6  A    between atoms: C_9  and  O_10
REMARK                            x       y       z     vdW  Elec       q    Type
REMARK                         _______ _______ _______ _____ _____    ______ ____
ROOT
ATOM      1  C   UNL     1      -0.955  -0.082   0.036  1.00  0.00    +0.000 C 
ATOM      2  C   UNL     1      -0.104   0.974   0.747  1.00  0.00    +0.000 C 
ATOM      3  C   UNL     1       1.354   0.828   0.299  1.00  0.00    +0.000 C 
ATOM      4  C   UNL     1       1.828  -0.598   0.596  1.00  0.00    +0.000 C 
ATOM      5  C   UNL     1       0.901  -1.593  -0.108  1.00  0.00    +0.000 C 
ATOM      6  O   UNL     1      -0.443  -1.383   0.330  1.00  0.00    +0.000 OA
ENDROOT
BRANCH   1   7
ATOM      7  O   UNL     1      -0.911   0.141  -1.375  1.00  0.00    +0.000 OA
ATOM      8  H   UNL     1      -1.430  -0.492  -1.889  1.00  0.00    +0.000 HD
ENDBRANCH   1   7
BRANCH   2   9
ATOM      9  O   UNL     1      -0.579   2.278   0.408  1.00  0.00    +0.000 OA
ATOM     10  H   UNL     1      -0.084   2.997   0.824  1.00  0.00    +0.000 HD
ENDBRANCH   2   9
BRANCH   3  11
ATOM     11  O   UNL     1       1.451   1.081  -1.104  1.00  0.00    +0.000 OA
ATOM     12  H   UNL     1       2.348   1.006  -1.456  1.00  0.00    +0.000 HD
ENDBRANCH   3  11
BRANCH   4  13
ATOM     13  O   UNL     1       3.163  -0.768   0.117  1.00  0.00    +0.000 OA
ATOM     14  H   UNL     1       3.528  -1.650   0.272  1.00  0.00    +0.000 HD
ENDBRANCH   4  13
BRANCH   1  15
ATOM     15  C   UNL     1      -2.402   0.019   0.523  1.00  0.00    +0.000 C 
BRANCH  15  16
ATOM     16  O   UNL     1      -3.197  -0.966  -0.140  1.00  0.00    +0.000 OA
ATOM     17  H   UNL     1      -4.129  -0.961   0.121  1.00  0.00    +0.000 HD
ENDBRANCH  15  16
ENDBRANCH   1  15
TORSDOF 6
