REMARK  Name = XYP
REMARK  4 active torsions:
REMARK  status: ('A' for Active; 'I' for Inactive)
REMARK    1  A    between atoms: O_1  and  C_2
REMARK    2  A    between atoms: C_3  and  O_7
REMARK    3  A    between atoms: C_4  and  O_8
REMARK    4  A    between atoms: C_5  and  O_9
REMARK                            x       y       z     vdW  Elec       q    Type
REMARK                         _______ _______ _______ _____ _____    ______ ____
ROOT
ATOM      1  C   UNL     1       0.509   0.253  -1.370  1.00  0.00    +0.000 C 
ATOM      2  C   UNL     1      -0.780  -0.228  -0.701  1.00  0.00    +0.000 C 
ATOM      3  C   UNL     1      -0.779   0.213   0.766  1.00  0.00    +0.000 C 
ATOM      4  C   UNL     1       0.519  -0.269   1.423  1.00  0.00    +0.000 C 
ATOM      5  C   UNL     1       1.710   0.215   0.593  1.00  0.00    +0.000 C 
ATOM      6  O   UNL     1       1.637  -0.331  -0.721  1.00  0.00    +0.000 OA
ENDROOT
BRANCH   1   7
ATOM      7  O   UNL     1       0.501  -0.130  -2.746  1.00  0.00    +0.000 OA
ATOM      8  H   UNL     1       1.325   0.194  -3.132  1.00  0.00    +0.000 HD
ENDBRANCH   1   7
BRANCH   2   9
ATOM      9  O   UNL     1      -1.907   0.337  -1.372  1.00  0.00    +0.000 OA
ATOM     10  H   UNL     1      -1.865   0.037  -2.291  1.00  0.00    +0.000 HD
ENDBRANCH   2   9
BRANCH   3  11
ATOM     11  O   UNL     1      -1.904  -0.354   1.439  1.00  0.00    +0.000 OA
ATOM     12  H   UNL     1      -1.864  -0.051   2.356  1.00  0.00    +0.000 HD
ENDBRANCH   3  11
BRANCH   4  13
ATOM     13  O   UNL     1       0.611   0.260   2.747  1.00  0.00    +0.000 OA
ATOM     14  H   UNL     1       1.441  -0.064   3.121  1.00  0.00    +0.000 HD
ENDBRANCH   4  13
TORSDOF 4
