MODEL 1
REMARK VINA RESULT:    -5.945      0.000      0.000
REMARK INTER + INTRA:          -7.392
REMARK INTER:                  -7.161
REMARK INTRA:                  -0.231
REMARK UNBOUND:                -0.231
REMARK  Name = ALL
REMARK  6 active torsions:
REMARK  status: ('A' for Active; 'I' for Inactive)
REMARK    1  A    between atoms: C_1  and  O_7
REMARK    2  A    between atoms: C_2  and  O_8
REMARK    3  A    between atoms: C_3  and  O_9
REMARK    4  A    between atoms: C_4  and  O_10
REMARK    5  A    between atoms: C_5  and  C_6
REMARK    6  A    between atoms: C_6  and  O_12
REMARK                            x       y       z     vdW  Elec       q    Type
REMARK                         _______ _______ _______ _____ _____    ______ ____
ROOT
ATOM      1  C   UNL     1       4.129  -1.890   2.410  1.00  0.00    +0.000 C 
ATOM      2  C   UNL     1       2.950  -1.031   1.948  1.00  0.00    +0.000 C 
ATOM      3  C   UNL     1       2.322  -1.665   0.704  1.00  0.00    +0.000 C 
ATOM      4  C   UNL     1       3.396  -1.809  -0.380  1.00  0.00    +0.000 C 
ATOM      5  C   UNL     1       4.558  -2.640   0.173  1.00  0.00    +0.000 C 
ATOM      6  O   UNL     1       5.076  -2.009   1.346  1.00  0.00    +0.000 OA
ENDROOT
BRANCH   1   7
ATOM      7  O   UNL     1       4.755  -1.274   3.539  1.00  0.00    +0.000 OA
ATOM      8  H   UNL     1       4.843  -1.857   4.305  1.00  0.00    +0.000 HD
ENDBRANCH   1   7
BRANCH   2   9
ATOM      9  O   UNL     1       1.975  -0.957   2.991  1.00  0.00    +0.000 OA
ATOM     10  H   UNL     1       2.324  -0.640   3.834  1.00  0.00    +0.000 HD
ENDBRANCH   2   9
BRANCH   3  11
ATOM     11  O   UNL     1       1.801  -2.953   1.035  1.00  0.00    +0.000 OA
ATOM     12  H   UNL     1       2.443  -3.671   0.951  1.00  0.00    +0.000 HD
ENDBRANCH   3  11
BRANCH   4  13
ATOM     13  O   UNL     1       2.840  -2.467  -1.520  1.00  0.00    +0.000 OA
ATOM     14  H   UNL     1       2.188  -3.146  -1.302  1.00  0.00    +0.000 HD
ENDBRANCH   4  13
BRANCH   5  15
ATOM     15  C   UNL     1       5.661  -2.738  -0.882  1.00  0.00    +0.000 C 
BRANCH  15  16
ATOM     16  O   UNL     1       5.314  -3.739  -1.843  1.00  0.00    +0.000 OA
ATOM     17  H   UNL     1       5.505  -4.641  -1.556  1.00  0.00    +0.000 HD
ENDBRANCH  15  16
ENDBRANCH   5  15
TORSDOF 6
ENDMDL
MODEL 2
REMARK VINA RESULT:    -5.651      1.088      2.732
REMARK INTER + INTRA:          -7.038
REMARK INTER:                  -6.985
REMARK INTRA:                  -0.053
REMARK UNBOUND:                -0.231
REMARK  Name = ALL
REMARK  6 active torsions:
REMARK  status: ('A' for Active; 'I' for Inactive)
REMARK    1  A    between atoms: C_1  and  O_7
REMARK    2  A    between atoms: C_2  and  O_8
REMARK    3  A    between atoms: C_3  and  O_9
REMARK    4  A    between atoms: C_4  and  O_10
REMARK    5  A    between atoms: C_5  and  C_6
REMARK    6  A    between atoms: C_6  and  O_12
REMARK                            x       y       z     vdW  Elec       q    Type
REMARK                         _______ _______ _______ _____ _____    ______ ____
ROOT
ATOM      1  C   UNL     1       2.041  -2.138   0.691  1.00  0.00    +0.000 C 
ATOM      2  C   UNL     1       2.491  -2.479   2.114  1.00  0.00    +0.000 C 
ATOM      3  C   UNL     1       3.855  -1.835   2.377  1.00  0.00    +0.000 C 
ATOM      4  C   UNL     1       4.851  -2.323   1.320  1.00  0.00    +0.000 C 
ATOM      5  C   UNL     1       4.309  -1.987  -0.073  1.00  0.00    +0.000 C 
ATOM      6  O   UNL     1       3.025  -2.591  -0.240  1.00  0.00    +0.000 OA
ENDROOT
BRANCH   1   7
ATOM      7  O   UNL     1       0.793  -2.781   0.419  1.00  0.00    +0.000 OA
ATOM      8  H   UNL     1       0.513  -3.400   1.106  1.00  0.00    +0.000 HD
ENDBRANCH   1   7
BRANCH   2   9
ATOM      9  O   UNL     1       1.536  -1.975   3.051  1.00  0.00    +0.000 OA
ATOM     10  H   UNL     1       1.465  -1.012   3.061  1.00  0.00    +0.000 HD
ENDBRANCH   2   9
BRANCH   3  11
ATOM     11  O   UNL     1       3.736  -0.414   2.302  1.00  0.00    +0.000 OA
ATOM     12  H   UNL     1       4.132   0.055   3.049  1.00  0.00    +0.000 HD
ENDBRANCH   3  11
BRANCH   4  13
ATOM     13  O   UNL     1       6.109  -1.674   1.512  1.00  0.00    +0.000 OA
ATOM     14  H   UNL     1       6.176  -1.185   2.343  1.00  0.00    +0.000 HD
ENDBRANCH   4  13
BRANCH   5  15
ATOM     15  C   UNL     1       5.268  -2.524  -1.136  1.00  0.00    +0.000 C 
BRANCH  15  16
ATOM     16  O   UNL     1       4.905  -3.866  -1.471  1.00  0.00    +0.000 OA
ATOM     17  H   UNL     1       4.475  -4.348  -0.753  1.00  0.00    +0.000 HD
ENDBRANCH  15  16
ENDBRANCH   5  15
TORSDOF 6
ENDMDL
MODEL 3
REMARK VINA RESULT:    -5.145      1.509      3.741
REMARK INTER + INTRA:          -6.428
REMARK INTER:                  -6.377
REMARK INTRA:                  -0.052
REMARK UNBOUND:                -0.231
REMARK  Name = ALL
REMARK  6 active torsions:
REMARK  status: ('A' for Active; 'I' for Inactive)
REMARK    1  A    between atoms: C_1  and  O_7
REMARK    2  A    between atoms: C_2  and  O_8
REMARK    3  A    between atoms: C_3  and  O_9
REMARK    4  A    between atoms: C_4  and  O_10
REMARK    5  A    between atoms: C_5  and  C_6
REMARK    6  A    between atoms: C_6  and  O_12
REMARK                            x       y       z     vdW  Elec       q    Type
REMARK                         _______ _______ _______ _____ _____    ______ ____
ROOT
ATOM      1  C   UNL     1       4.146  -1.200   0.072  1.00  0.00    +0.000 C 
ATOM      2  C   UNL     1       3.143  -2.347  -0.070  1.00  0.00    +0.000 C 
ATOM      3  C   UNL     1       2.330  -2.468   1.222  1.00  0.00    +0.000 C 
ATOM      4  C   UNL     1       3.289  -2.678   2.398  1.00  0.00    +0.000 C 
ATOM      5  C   UNL     1       4.287  -1.517   2.445  1.00  0.00    +0.000 C 
ATOM      6  O   UNL     1       4.987  -1.442   1.202  1.00  0.00    +0.000 OA
ENDROOT
BRANCH   1   7
ATOM      7  O   UNL     1       4.946  -1.116  -1.109  1.00  0.00    +0.000 OA
ATOM      8  H   UNL     1       4.482  -1.375  -1.917  1.00  0.00    +0.000 HD
ENDBRANCH   1   7
BRANCH   2   9
ATOM      9  O   UNL     1       2.263  -2.080  -1.165  1.00  0.00    +0.000 OA
ATOM     10  H   UNL     1       1.333  -2.253  -0.972  1.00  0.00    +0.000 HD
ENDBRANCH   2   9
BRANCH   3  11
ATOM     11  O   UNL     1       1.576  -1.272   1.427  1.00  0.00    +0.000 OA
ATOM     12  H   UNL     1       1.789  -0.809   2.248  1.00  0.00    +0.000 HD
ENDBRANCH   3  11
BRANCH   4  13
ATOM     13  O   UNL     1       2.548  -2.720   3.618  1.00  0.00    +0.000 OA
ATOM     14  H   UNL     1       1.744  -2.183   3.608  1.00  0.00    +0.000 HD
ENDBRANCH   4  13
BRANCH   5  15
ATOM     15  C   UNL     1       5.285  -1.749   3.580  1.00  0.00    +0.000 C 
BRANCH  15  16
ATOM     16  O   UNL     1       5.343  -0.586   4.410  1.00  0.00    +0.000 OA
ATOM     17  H   UNL     1       6.133  -0.537   4.965  1.00  0.00    +0.000 HD
ENDBRANCH  15  16
ENDBRANCH   5  15
TORSDOF 6
ENDMDL
MODEL 4
REMARK VINA RESULT:    -4.926      1.308      3.591
REMARK INTER + INTRA:          -6.165
REMARK INTER:                  -6.102
REMARK INTRA:                  -0.063
REMARK UNBOUND:                -0.231
REMARK  Name = ALL
REMARK  6 active torsions:
REMARK  status: ('A' for Active; 'I' for Inactive)
REMARK    1  A    between atoms: C_1  and  O_7
REMARK    2  A    between atoms: C_2  and  O_8
REMARK    3  A    between atoms: C_3  and  O_9
REMARK    4  A    between atoms: C_4  and  O_10
REMARK    5  A    between atoms: C_5  and  C_6
REMARK    6  A    between atoms: C_6  and  O_12
REMARK                            x       y       z     vdW  Elec       q    Type
REMARK                         _______ _______ _______ _____ _____    ______ ____
ROOT
ATOM      1  C   UNL     1       4.930  -1.631   1.028  1.00  0.00    +0.000 C 
ATOM      2  C   UNL     1       4.663  -2.723  -0.012  1.00  0.00    +0.000 C 
ATOM      3  C   UNL     1       3.206  -2.632  -0.473  1.00  0.00    +0.000 C 
ATOM      4  C   UNL     1       2.286  -2.753   0.746  1.00  0.00    +0.000 C 
ATOM      5  C   UNL     1       2.645  -1.659   1.756  1.00  0.00    +0.000 C 
ATOM      6  O   UNL     1       4.021  -1.783   2.120  1.00  0.00    +0.000 OA
ENDROOT
BRANCH   1   7
ATOM      7  O   UNL     1       6.273  -1.746   1.504  1.00  0.00    +0.000 OA
ATOM      8  H   UNL     1       6.378  -2.368   2.236  1.00  0.00    +0.000 HD
ENDBRANCH   1   7
BRANCH   2   9
ATOM      9  O   UNL     1       5.532  -2.540  -1.132  1.00  0.00    +0.000 OA
ATOM     10  H   UNL     1       5.980  -3.346  -1.417  1.00  0.00    +0.000 HD
ENDBRANCH   2   9
BRANCH   3  11
ATOM     11  O   UNL     1       2.985  -1.375  -1.116  1.00  0.00    +0.000 OA
ATOM     12  H   UNL     1       2.626  -0.693  -0.534  1.00  0.00    +0.000 HD
ENDBRANCH   3  11
BRANCH   4  13
ATOM     13  O   UNL     1       0.926  -2.597   0.337  1.00  0.00    +0.000 OA
ATOM     14  H   UNL     1       0.822  -2.197  -0.537  1.00  0.00    +0.000 HD
ENDBRANCH   4  13
BRANCH   5  15
ATOM     15  C   UNL     1       1.772  -1.810   3.002  1.00  0.00    +0.000 C 
BRANCH  15  16
ATOM     16  O   UNL     1       2.204  -2.947   3.753  1.00  0.00    +0.000 OA
ATOM     17  H   UNL     1       1.959  -2.919   4.687  1.00  0.00    +0.000 HD
ENDBRANCH  15  16
ENDBRANCH   5  15
TORSDOF 6
ENDMDL
MODEL 5
REMARK VINA RESULT:    -4.730      1.304      3.600
REMARK INTER + INTRA:          -5.929
REMARK INTER:                  -5.868
REMARK INTRA:                  -0.061
REMARK UNBOUND:                -0.231
REMARK  Name = ALL
REMARK  6 active torsions:
REMARK  status: ('A' for Active; 'I' for Inactive)
REMARK    1  A    between atoms: C_1  and  O_7
REMARK    2  A    between atoms: C_2  and  O_8
REMARK    3  A    between atoms: C_3  and  O_9
REMARK    4  A    between atoms: C_4  and  O_10
REMARK    5  A    between atoms: C_5  and  C_6
REMARK    6  A    between atoms: C_6  and  O_12
REMARK                            x       y       z     vdW  Elec       q    Type
REMARK                         _______ _______ _______ _____ _____    ______ ____
ROOT
ATOM      1  C   UNL     1       2.300  -2.070   1.152  1.00  0.00    +0.000 C 
ATOM      2  C   UNL     1       2.887  -1.492  -0.138  1.00  0.00    +0.000 C 
ATOM      3  C   UNL     1       4.376  -1.843  -0.215  1.00  0.00    +0.000 C 
ATOM      4  C   UNL     1       5.081  -1.306   1.035  1.00  0.00    +0.000 C 
ATOM      5  C   UNL     1       4.408  -1.892   2.281  1.00  0.00    +0.000 C 
ATOM      6  O   UNL     1       3.020  -1.555   2.273  1.00  0.00    +0.000 OA
ENDROOT
BRANCH   1   7
ATOM      7  O   UNL     1       0.923  -1.699   1.257  1.00  0.00    +0.000 OA
ATOM      8  H   UNL     1       0.779  -0.841   1.679  1.00  0.00    +0.000 HD
ENDBRANCH   1   7
BRANCH   2   9
ATOM      9  O   UNL     1       2.206  -2.050  -1.265  1.00  0.00    +0.000 OA
ATOM     10  H   UNL     1       1.246  -1.947  -1.235  1.00  0.00    +0.000 HD
ENDBRANCH   2   9
BRANCH   3  11
ATOM     11  O   UNL     1       4.530  -3.261  -0.279  1.00  0.00    +0.000 OA
ATOM     12  H   UNL     1       4.043  -3.742   0.403  1.00  0.00    +0.000 HD
ENDBRANCH   3  11
BRANCH   4  13
ATOM     13  O   UNL     1       6.457  -1.690   1.011  1.00  0.00    +0.000 OA
ATOM     14  H   UNL     1       6.646  -2.436   0.424  1.00  0.00    +0.000 HD
ENDBRANCH   4  13
BRANCH   5  15
ATOM     15  C   UNL     1       5.068  -1.315   3.534  1.00  0.00    +0.000 C 
BRANCH  15  16
ATOM     16  O   UNL     1       6.428  -1.750   3.601  1.00  0.00    +0.000 OA
ATOM     17  H   UNL     1       6.575  -2.636   3.243  1.00  0.00    +0.000 HD
ENDBRANCH  15  16
ENDBRANCH   5  15
TORSDOF 6
ENDMDL
MODEL 6
REMARK VINA RESULT:    -4.705      1.280      3.130
REMARK INTER + INTRA:          -5.899
REMARK INTER:                  -5.676
REMARK INTRA:                  -0.223
REMARK UNBOUND:                -0.231
REMARK  Name = ALL
REMARK  6 active torsions:
REMARK  status: ('A' for Active; 'I' for Inactive)
REMARK    1  A    between atoms: C_1  and  O_7
REMARK    2  A    between atoms: C_2  and  O_8
REMARK    3  A    between atoms: C_3  and  O_9
REMARK    4  A    between atoms: C_4  and  O_10
REMARK    5  A    between atoms: C_5  and  C_6
REMARK    6  A    between atoms: C_6  and  O_12
REMARK                            x       y       z     vdW  Elec       q    Type
REMARK                         _______ _______ _______ _____ _____    ______ ____
ROOT
ATOM      1  C   UNL     1       4.548  -1.109   2.375  1.00  0.00    +0.000 C 
ATOM      2  C   UNL     1       5.421  -2.047   1.537  1.00  0.00    +0.000 C 
ATOM      3  C   UNL     1       4.935  -2.024   0.085  1.00  0.00    +0.000 C 
ATOM      4  C   UNL     1       3.455  -2.420   0.047  1.00  0.00    +0.000 C 
ATOM      5  C   UNL     1       2.658  -1.466   0.942  1.00  0.00    +0.000 C 
ATOM      6  O   UNL     1       3.181  -1.514   2.270  1.00  0.00    +0.000 OA
ENDROOT
BRANCH   1   7
ATOM      7  O   UNL     1       4.960  -1.168   3.742  1.00  0.00    +0.000 OA
ATOM      8  H   UNL     1       5.913  -1.067   3.869  1.00  0.00    +0.000 HD
ENDBRANCH   1   7
BRANCH   2   9
ATOM      9  O   UNL     1       6.781  -1.610   1.593  1.00  0.00    +0.000 OA
ATOM     10  H   UNL     1       7.425  -2.330   1.591  1.00  0.00    +0.000 HD
ENDBRANCH   2   9
BRANCH   3  11
ATOM     11  O   UNL     1       5.093  -0.709  -0.451  1.00  0.00    +0.000 OA
ATOM     12  H   UNL     1       5.749  -0.649  -1.158  1.00  0.00    +0.000 HD
ENDBRANCH   3  11
BRANCH   4  13
ATOM     13  O   UNL     1       2.971  -2.331  -1.295  1.00  0.00    +0.000 OA
ATOM     14  H   UNL     1       2.919  -1.427  -1.634  1.00  0.00    +0.000 HD
ENDBRANCH   4  13
BRANCH   5  15
ATOM     15  C   UNL     1       1.189  -1.891   0.956  1.00  0.00    +0.000 C 
BRANCH  15  16
ATOM     16  O   UNL     1       1.072  -3.220   0.443  1.00  0.00    +0.000 OA
ATOM     17  H   UNL     1       1.827  -3.504  -0.089  1.00  0.00    +0.000 HD
ENDBRANCH  15  16
ENDBRANCH   5  15
TORSDOF 6
ENDMDL
MODEL 7
REMARK VINA RESULT:    -4.436      9.510     10.710
REMARK INTER + INTRA:          -5.575
REMARK INTER:                  -5.355
REMARK INTRA:                  -0.220
REMARK UNBOUND:                -0.231
REMARK  Name = ALL
REMARK  6 active torsions:
REMARK  status: ('A' for Active; 'I' for Inactive)
REMARK    1  A    between atoms: C_1  and  O_7
REMARK    2  A    between atoms: C_2  and  O_8
REMARK    3  A    between atoms: C_3  and  O_9
REMARK    4  A    between atoms: C_4  and  O_10
REMARK    5  A    between atoms: C_5  and  C_6
REMARK    6  A    between atoms: C_6  and  O_12
REMARK                            x       y       z     vdW  Elec       q    Type
REMARK                         _______ _______ _______ _____ _____    ______ ____
ROOT
ATOM      1  C   UNL     1      12.018   1.455   4.320  1.00  0.00    +0.000 C 
ATOM      2  C   UNL     1      12.473   2.027   2.975  1.00  0.00    +0.000 C 
ATOM      3  C   UNL     1      13.235   0.948   2.201  1.00  0.00    +0.000 C 
ATOM      4  C   UNL     1      14.411   0.458   3.051  1.00  0.00    +0.000 C 
ATOM      5  C   UNL     1      13.880  -0.054   4.394  1.00  0.00    +0.000 C 
ATOM      6  O   UNL     1      13.157   0.990   5.047  1.00  0.00    +0.000 OA
ENDROOT
BRANCH   1   7
ATOM      7  O   UNL     1      11.355   2.474   5.071  1.00  0.00    +0.000 OA
ATOM      8  H   UNL     1      11.566   2.466   6.015  1.00  0.00    +0.000 HD
ENDBRANCH   1   7
BRANCH   2   9
ATOM      9  O   UNL     1      11.332   2.441   2.221  1.00  0.00    +0.000 OA
ATOM     10  H   UNL     1      11.380   2.219   1.282  1.00  0.00    +0.000 HD
ENDBRANCH   2   9
BRANCH   3  11
ATOM     11  O   UNL     1      12.360  -0.146   1.919  1.00  0.00    +0.000 OA
ATOM     12  H   UNL     1      12.191  -0.282   0.978  1.00  0.00    +0.000 HD
ENDBRANCH   3  11
BRANCH   4  13
ATOM     13  O   UNL     1      15.086  -0.601   2.370  1.00  0.00    +0.000 OA
ATOM     14  H   UNL     1      15.479  -1.259   2.959  1.00  0.00    +0.000 HD
ENDBRANCH   4  13
BRANCH   5  15
ATOM     15  C   UNL     1      15.054  -0.490   5.273  1.00  0.00    +0.000 C 
BRANCH  15  16
ATOM     16  O   UNL     1      15.539  -1.759   4.826  1.00  0.00    +0.000 OA
ATOM     17  H   UNL     1      16.381  -2.019   5.221  1.00  0.00    +0.000 HD
ENDBRANCH  15  16
ENDBRANCH   5  15
TORSDOF 6
ENDMDL
MODEL 8
REMARK VINA RESULT:    -4.413      1.306      2.126
REMARK INTER + INTRA:          -5.546
REMARK INTER:                  -5.349
REMARK INTRA:                  -0.198
REMARK UNBOUND:                -0.231
REMARK  Name = ALL
REMARK  6 active torsions:
REMARK  status: ('A' for Active; 'I' for Inactive)
REMARK    1  A    between atoms: C_1  and  O_7
REMARK    2  A    between atoms: C_2  and  O_8
REMARK    3  A    between atoms: C_3  and  O_9
REMARK    4  A    between atoms: C_4  and  O_10
REMARK    5  A    between atoms: C_5  and  C_6
REMARK    6  A    between atoms: C_6  and  O_12
REMARK                            x       y       z     vdW  Elec       q    Type
REMARK                         _______ _______ _______ _____ _____    ______ ____
ROOT
ATOM      1  C   UNL     1       2.759  -1.598   1.992  1.00  0.00    +0.000 C 
ATOM      2  C   UNL     1       2.076  -1.692   0.625  1.00  0.00    +0.000 C 
ATOM      3  C   UNL     1       2.822  -2.711  -0.241  1.00  0.00    +0.000 C 
ATOM      4  C   UNL     1       4.292  -2.292  -0.353  1.00  0.00    +0.000 C 
ATOM      5  C   UNL     1       4.889  -2.175   1.053  1.00  0.00    +0.000 C 
ATOM      6  O   UNL     1       4.130  -1.235   1.814  1.00  0.00    +0.000 OA
ENDROOT
BRANCH   1   7
ATOM      7  O   UNL     1       2.101  -0.608   2.786  1.00  0.00    +0.000 OA
ATOM      8  H   UNL     1       2.701   0.034   3.188  1.00  0.00    +0.000 HD
ENDBRANCH   1   7
BRANCH   2   9
ATOM      9  O   UNL     1       0.720  -2.111   0.795  1.00  0.00    +0.000 OA
ATOM     10  H   UNL     1       0.283  -2.370  -0.026  1.00  0.00    +0.000 HD
ENDBRANCH   2   9
BRANCH   3  11
ATOM     11  O   UNL     1       2.738  -4.003   0.362  1.00  0.00    +0.000 OA
ATOM     12  H   UNL     1       3.525  -4.550   0.232  1.00  0.00    +0.000 HD
ENDBRANCH   3  11
BRANCH   4  13
ATOM     13  O   UNL     1       5.014  -3.274  -1.098  1.00  0.00    +0.000 OA
ATOM     14  H   UNL     1       4.525  -3.634  -1.850  1.00  0.00    +0.000 HD
ENDBRANCH   4  13
BRANCH   5  15
ATOM     15  C   UNL     1       6.339  -1.699   0.952  1.00  0.00    +0.000 C 
BRANCH  15  16
ATOM     16  O   UNL     1       6.423  -0.625   0.012  1.00  0.00    +0.000 OA
ATOM     17  H   UNL     1       6.467   0.251   0.419  1.00  0.00    +0.000 HD
ENDBRANCH  15  16
ENDBRANCH   5  15
TORSDOF 6
ENDMDL
MODEL 9
REMARK VINA RESULT:    -4.316     11.897     13.682
REMARK INTER + INTRA:          -5.430
REMARK INTER:                  -5.207
REMARK INTRA:                  -0.223
REMARK UNBOUND:                -0.231
REMARK  Name = ALL
REMARK  6 active torsions:
REMARK  status: ('A' for Active; 'I' for Inactive)
REMARK    1  A    between atoms: C_1  and  O_7
REMARK    2  A    between atoms: C_2  and  O_8
REMARK    3  A    between atoms: C_3  and  O_9
REMARK    4  A    between atoms: C_4  and  O_10
REMARK    5  A    between atoms: C_5  and  C_6
REMARK    6  A    between atoms: C_6  and  O_12
REMARK                            x       y       z     vdW  Elec       q    Type
REMARK                         _______ _______ _______ _____ _____    ______ ____
ROOT
ATOM      1  C   UNL     1      -7.387  -9.019  -1.032  1.00  0.00    +0.000 C 
ATOM      2  C   UNL     1      -8.200 -10.109  -0.328  1.00  0.00    +0.000 C 
ATOM      3  C   UNL     1      -8.833  -9.526   0.938  1.00  0.00    +0.000 C 
ATOM      4  C   UNL     1      -7.728  -8.956   1.833  1.00  0.00    +0.000 C 
ATOM      5  C   UNL     1      -6.934  -7.909   1.045  1.00  0.00    +0.000 C 
ATOM      6  O   UNL     1      -6.398  -8.510  -0.134  1.00  0.00    +0.000 OA
ENDROOT
BRANCH   1   7
ATOM      7  O   UNL     1      -6.748  -9.570  -2.185  1.00  0.00    +0.000 OA
ATOM      8  H   UNL     1      -7.300 -10.189  -2.681  1.00  0.00    +0.000 HD
ENDBRANCH   1   7
BRANCH   2   9
ATOM      9  O   UNL     1      -9.227 -10.579  -1.204  1.00  0.00    +0.000 OA
ATOM     10  H   UNL     1      -8.912 -10.829  -2.082  1.00  0.00    +0.000 HD
ENDBRANCH   2   9
BRANCH   3  11
ATOM     11  O   UNL     1      -9.744  -8.484   0.581  1.00  0.00    +0.000 OA
ATOM     12  H   UNL     1      -9.938  -8.437  -0.365  1.00  0.00    +0.000 HD
ENDBRANCH   3  11
BRANCH   4  13
ATOM     13  O   UNL     1      -8.313  -8.344   2.984  1.00  0.00    +0.000 OA
ATOM     14  H   UNL     1      -9.264  -8.185   2.904  1.00  0.00    +0.000 HD
ENDBRANCH   4  13
BRANCH   5  15
ATOM     15  C   UNL     1      -5.791  -7.379   1.912  1.00  0.00    +0.000 C 
BRANCH  15  16
ATOM     16  O   UNL     1      -5.593  -8.253   3.026  1.00  0.00    +0.000 OA
ATOM     17  H   UNL     1      -5.280  -9.134   2.783  1.00  0.00    +0.000 HD
ENDBRANCH  15  16
ENDBRANCH   5  15
TORSDOF 6
ENDMDL
