MODEL 1
REMARK VINA RESULT:    -5.506      0.000      0.000
REMARK INTER + INTRA:          -6.710
REMARK INTER:                  -6.472
REMARK INTRA:                  -0.238
REMARK UNBOUND:                -0.238
REMARK  Name = AHR
REMARK  5 active torsions:
REMARK  status: ('A' for Active; 'I' for Inactive)
REMARK    1  A    between atoms: O_1  and  C_2
REMARK    2  A    between atoms: C_2  and  C_3
REMARK    3  A    between atoms: C_5  and  O_6
REMARK    4  A    between atoms: C_7  and  O_8
REMARK    5  A    between atoms: C_9  and  O_10
REMARK                            x       y       z     vdW  Elec       q    Type
REMARK                         _______ _______ _______ _____ _____    ______ ____
ROOT
ATOM      1  C   UNL     1       4.265  -1.863   0.218  1.00  0.00    +0.000 C 
ATOM      2  O   UNL     1       4.889  -1.151   1.296  1.00  0.00    +0.000 OA
ATOM      3  C   UNL     1       3.339  -2.903   0.899  1.00  0.00    +0.000 C 
ATOM      4  C   UNL     1       2.843  -2.093   2.129  1.00  0.00    +0.000 C 
ATOM      5  C   UNL     1       4.074  -1.226   2.470  1.00  0.00    +0.000 C 
ENDROOT
BRANCH   3   6
ATOM      6  O   UNL     1       2.251  -3.267   0.049  1.00  0.00    +0.000 OA
ATOM      7  H   UNL     1       2.263  -2.653  -0.698  1.00  0.00    +0.000 HD
ENDBRANCH   3   6
BRANCH   4   8
ATOM      8  O   UNL     1       2.513  -2.959   3.216  1.00  0.00    +0.000 OA
ATOM      9  H   UNL     1       3.348  -3.290   3.573  1.00  0.00    +0.000 HD
ENDBRANCH   4   8
BRANCH   5  10
ATOM     10  O   UNL     1       3.655   0.084   2.854  1.00  0.00    +0.000 OA
ATOM     11  H   UNL     1       4.438   0.651   2.813  1.00  0.00    +0.000 HD
ENDBRANCH   5  10
BRANCH   1  12
ATOM     12  C   UNL     1       5.319  -2.570  -0.635  1.00  0.00    +0.000 C 
BRANCH  12  13
ATOM     13  O   UNL     1       4.734  -3.708  -1.269  1.00  0.00    +0.000 OA
ATOM     14  H   UNL     1       4.615  -4.380  -0.583  1.00  0.00    +0.000 HD
ENDBRANCH  12  13
ENDBRANCH   1  12
TORSDOF 5
ENDMDL
MODEL 2
REMARK VINA RESULT:    -5.461      1.220      3.534
REMARK INTER + INTRA:          -6.656
REMARK INTER:                  -6.424
REMARK INTRA:                  -0.232
REMARK UNBOUND:                -0.238
REMARK  Name = AHR
REMARK  5 active torsions:
REMARK  status: ('A' for Active; 'I' for Inactive)
REMARK    1  A    between atoms: O_1  and  C_2
REMARK    2  A    between atoms: C_2  and  C_3
REMARK    3  A    between atoms: C_5  and  O_6
REMARK    4  A    between atoms: C_7  and  O_8
REMARK    5  A    between atoms: C_9  and  O_10
REMARK                            x       y       z     vdW  Elec       q    Type
REMARK                         _______ _______ _______ _____ _____    ______ ____
ROOT
ATOM      1  C   UNL     1       4.293  -2.270   1.760  1.00  0.00    +0.000 C 
ATOM      2  O   UNL     1       5.220  -2.294   0.664  1.00  0.00    +0.000 OA
ATOM      3  C   UNL     1       2.967  -1.738   1.158  1.00  0.00    +0.000 C 
ATOM      4  C   UNL     1       3.003  -2.390  -0.252  1.00  0.00    +0.000 C 
ATOM      5  C   UNL     1       4.512  -2.393  -0.575  1.00  0.00    +0.000 C 
ENDROOT
BRANCH   3   6
ATOM      6  O   UNL     1       1.838  -2.191   1.907  1.00  0.00    +0.000 OA
ATOM      7  H   UNL     1       1.676  -3.107   1.642  1.00  0.00    +0.000 HD
ENDBRANCH   3   6
BRANCH   4   8
ATOM      8  O   UNL     1       2.280  -1.604  -1.200  1.00  0.00    +0.000 OA
ATOM      9  H   UNL     1       2.538  -0.683  -1.054  1.00  0.00    +0.000 HD
ENDBRANCH   4   8
BRANCH   5  10
ATOM     10  O   UNL     1       4.865  -3.606  -1.241  1.00  0.00    +0.000 OA
ATOM     11  H   UNL     1       4.419  -4.324  -0.769  1.00  0.00    +0.000 HD
ENDBRANCH   5  10
BRANCH   1  12
ATOM     12  C   UNL     1       4.792  -1.331   2.859  1.00  0.00    +0.000 C 
BRANCH  12  13
ATOM     13  O   UNL     1       3.999  -0.143   2.865  1.00  0.00    +0.000 OA
ATOM     14  H   UNL     1       3.957   0.170   1.950  1.00  0.00    +0.000 HD
ENDBRANCH  12  13
ENDBRANCH   1  12
TORSDOF 5
ENDMDL
MODEL 3
REMARK VINA RESULT:    -5.439      1.658      3.765
REMARK INTER + INTRA:          -6.631
REMARK INTER:                  -6.417
REMARK INTRA:                  -0.214
REMARK UNBOUND:                -0.238
REMARK  Name = AHR
REMARK  5 active torsions:
REMARK  status: ('A' for Active; 'I' for Inactive)
REMARK    1  A    between atoms: O_1  and  C_2
REMARK    2  A    between atoms: C_2  and  C_3
REMARK    3  A    between atoms: C_5  and  O_6
REMARK    4  A    between atoms: C_7  and  O_8
REMARK    5  A    between atoms: C_9  and  O_10
REMARK                            x       y       z     vdW  Elec       q    Type
REMARK                         _______ _______ _______ _____ _____    ______ ____
ROOT
ATOM      1  C   UNL     1       3.985  -1.214   1.660  1.00  0.00    +0.000 C 
ATOM      2  O   UNL     1       2.693  -1.356   1.051  1.00  0.00    +0.000 OA
ATOM      3  C   UNL     1       4.918  -2.160   0.862  1.00  0.00    +0.000 C 
ATOM      4  C   UNL     1       4.343  -1.997  -0.572  1.00  0.00    +0.000 C 
ATOM      5  C   UNL     1       2.837  -1.799  -0.302  1.00  0.00    +0.000 C 
ENDROOT
BRANCH   3   6
ATOM      6  O   UNL     1       6.277  -1.725   0.926  1.00  0.00    +0.000 OA
ATOM      7  H   UNL     1       6.284  -0.794   0.665  1.00  0.00    +0.000 HD
ENDBRANCH   3   6
BRANCH   4   8
ATOM      8  O   UNL     1       4.571  -3.171  -1.353  1.00  0.00    +0.000 OA
ATOM      9  H   UNL     1       4.278  -3.922  -0.821  1.00  0.00    +0.000 HD
ENDBRANCH   4   8
BRANCH   5  10
ATOM     10  O   UNL     1       2.308  -0.816  -1.193  1.00  0.00    +0.000 OA
ATOM     11  H   UNL     1       1.526  -1.207  -1.608  1.00  0.00    +0.000 HD
ENDBRANCH   5  10
BRANCH   1  12
ATOM     12  C   UNL     1       3.930  -1.637   3.129  1.00  0.00    +0.000 C 
BRANCH  12  13
ATOM     13  O   UNL     1       5.145  -1.259   3.779  1.00  0.00    +0.000 OA
ATOM     14  H   UNL     1       5.337  -1.946   4.433  1.00  0.00    +0.000 HD
ENDBRANCH  12  13
ENDBRANCH   1  12
TORSDOF 5
ENDMDL
MODEL 4
REMARK VINA RESULT:    -5.354      1.074      3.950
REMARK INTER + INTRA:          -6.531
REMARK INTER:                  -6.366
REMARK INTRA:                  -0.165
REMARK UNBOUND:                -0.238
REMARK  Name = AHR
REMARK  5 active torsions:
REMARK  status: ('A' for Active; 'I' for Inactive)
REMARK    1  A    between atoms: O_1  and  C_2
REMARK    2  A    between atoms: C_2  and  C_3
REMARK    3  A    between atoms: C_5  and  O_6
REMARK    4  A    between atoms: C_7  and  O_8
REMARK    5  A    between atoms: C_9  and  O_10
REMARK                            x       y       z     vdW  Elec       q    Type
REMARK                         _______ _______ _______ _____ _____    ______ ____
ROOT
ATOM      1  C   UNL     1       2.771  -2.459   1.698  1.00  0.00    +0.000 C 
ATOM      2  O   UNL     1       3.152  -3.396   0.678  1.00  0.00    +0.000 OA
ATOM      3  C   UNL     1       4.070  -1.690   2.048  1.00  0.00    +0.000 C 
ATOM      4  C   UNL     1       4.742  -1.597   0.650  1.00  0.00    +0.000 C 
ATOM      5  C   UNL     1       4.315  -2.926  -0.009  1.00  0.00    +0.000 C 
ENDROOT
BRANCH   3   6
ATOM      6  O   UNL     1       3.780  -0.392   2.568  1.00  0.00    +0.000 OA
ATOM      7  H   UNL     1       3.685  -0.489   3.526  1.00  0.00    +0.000 HD
ENDBRANCH   3   6
BRANCH   4   8
ATOM      8  O   UNL     1       6.163  -1.520   0.768  1.00  0.00    +0.000 OA
ATOM      9  H   UNL     1       6.359  -0.716   1.268  1.00  0.00    +0.000 HD
ENDBRANCH   4   8
BRANCH   5  10
ATOM     10  O   UNL     1       4.010  -2.709  -1.387  1.00  0.00    +0.000 OA
ATOM     11  H   UNL     1       3.979  -3.580  -1.807  1.00  0.00    +0.000 HD
ENDBRANCH   5  10
BRANCH   1  12
ATOM     12  C   UNL     1       2.243  -3.198   2.928  1.00  0.00    +0.000 C 
BRANCH  12  13
ATOM     13  O   UNL     1       1.448  -2.308   3.713  1.00  0.00    +0.000 OA
ATOM     14  H   UNL     1       1.816  -1.421   3.588  1.00  0.00    +0.000 HD
ENDBRANCH  12  13
ENDBRANCH   1  12
TORSDOF 5
ENDMDL
MODEL 5
REMARK VINA RESULT:    -5.284      0.864      2.439
REMARK INTER + INTRA:          -6.449
REMARK INTER:                  -6.288
REMARK INTRA:                  -0.160
REMARK UNBOUND:                -0.238
REMARK  Name = AHR
REMARK  5 active torsions:
REMARK  status: ('A' for Active; 'I' for Inactive)
REMARK    1  A    between atoms: O_1  and  C_2
REMARK    2  A    between atoms: C_2  and  C_3
REMARK    3  A    between atoms: C_5  and  O_6
REMARK    4  A    between atoms: C_7  and  O_8
REMARK    5  A    between atoms: C_9  and  O_10
REMARK                            x       y       z     vdW  Elec       q    Type
REMARK                         _______ _______ _______ _____ _____    ______ ____
ROOT
ATOM      1  C   UNL     1       4.010  -3.013   0.589  1.00  0.00    +0.000 C 
ATOM      2  O   UNL     1       2.694  -3.022   1.162  1.00  0.00    +0.000 OA
ATOM      3  C   UNL     1       4.622  -1.649   0.998  1.00  0.00    +0.000 C 
ATOM      4  C   UNL     1       4.031  -1.479   2.425  1.00  0.00    +0.000 C 
ATOM      5  C   UNL     1       2.644  -2.140   2.288  1.00  0.00    +0.000 C 
ENDROOT
BRANCH   3   6
ATOM      6  O   UNL     1       6.049  -1.710   1.035  1.00  0.00    +0.000 OA
ATOM      7  H   UNL     1       6.332  -2.121   0.207  1.00  0.00    +0.000 HD
ENDBRANCH   3   6
BRANCH   4   8
ATOM      8  O   UNL     1       3.906  -0.098   2.768  1.00  0.00    +0.000 OA
ATOM      9  H   UNL     1       4.799   0.229   2.941  1.00  0.00    +0.000 HD
ENDBRANCH   4   8
BRANCH   5  10
ATOM     10  O   UNL     1       2.339  -2.881   3.471  1.00  0.00    +0.000 OA
ATOM     11  H   UNL     1       2.552  -2.308   4.222  1.00  0.00    +0.000 HD
ENDBRANCH   5  10
BRANCH   1  12
ATOM     12  C   UNL     1       3.928  -3.123  -0.934  1.00  0.00    +0.000 C 
BRANCH  12  13
ATOM     13  O   UNL     1       5.174  -3.598  -1.444  1.00  0.00    +0.000 OA
ATOM     14  H   UNL     1       4.968  -4.312  -2.065  1.00  0.00    +0.000 HD
ENDBRANCH  12  13
ENDBRANCH   1  12
TORSDOF 5
ENDMDL
MODEL 6
REMARK VINA RESULT:    -5.065      1.486      2.691
REMARK INTER + INTRA:          -6.191
REMARK INTER:                  -5.941
REMARK INTRA:                  -0.250
REMARK UNBOUND:                -0.238
REMARK  Name = AHR
REMARK  5 active torsions:
REMARK  status: ('A' for Active; 'I' for Inactive)
REMARK    1  A    between atoms: O_1  and  C_2
REMARK    2  A    between atoms: C_2  and  C_3
REMARK    3  A    between atoms: C_5  and  O_6
REMARK    4  A    between atoms: C_7  and  O_8
REMARK    5  A    between atoms: C_9  and  O_10
REMARK                            x       y       z     vdW  Elec       q    Type
REMARK                         _______ _______ _______ _____ _____    ______ ____
ROOT
ATOM      1  C   UNL     1       2.780  -2.202   1.273  1.00  0.00    +0.000 C 
ATOM      2  O   UNL     1       3.072  -1.152   2.208  1.00  0.00    +0.000 OA
ATOM      3  C   UNL     1       4.051  -2.332   0.397  1.00  0.00    +0.000 C 
ATOM      4  C   UNL     1       5.162  -2.059   1.449  1.00  0.00    +0.000 C 
ATOM      5  C   UNL     1       4.488  -1.030   2.380  1.00  0.00    +0.000 C 
ENDROOT
BRANCH   3   6
ATOM      6  O   UNL     1       4.172  -3.645  -0.152  1.00  0.00    +0.000 OA
ATOM      7  H   UNL     1       4.266  -3.540  -1.109  1.00  0.00    +0.000 HD
ENDBRANCH   3   6
BRANCH   4   8
ATOM      8  O   UNL     1       6.327  -1.506   0.835  1.00  0.00    +0.000 OA
ATOM      9  H   UNL     1       6.907  -2.247   0.617  1.00  0.00    +0.000 HD
ENDBRANCH   4   8
BRANCH   5  10
ATOM     10  O   UNL     1       4.836  -1.301   3.739  1.00  0.00    +0.000 OA
ATOM     11  H   UNL     1       5.734  -1.662   3.730  1.00  0.00    +0.000 HD
ENDBRANCH   5  10
BRANCH   1  12
ATOM     12  C   UNL     1       1.576  -1.825   0.409  1.00  0.00    +0.000 C 
BRANCH  12  13
ATOM     13  O   UNL     1       1.992  -1.677  -0.949  1.00  0.00    +0.000 OA
ATOM     14  H   UNL     1       1.684  -2.462  -1.423  1.00  0.00    +0.000 HD
ENDBRANCH  12  13
ENDBRANCH   1  12
TORSDOF 5
ENDMDL
MODEL 7
REMARK VINA RESULT:    -5.020      1.473      2.012
REMARK INTER + INTRA:          -6.139
REMARK INTER:                  -5.955
REMARK INTRA:                  -0.184
REMARK UNBOUND:                -0.238
REMARK  Name = AHR
REMARK  5 active torsions:
REMARK  status: ('A' for Active; 'I' for Inactive)
REMARK    1  A    between atoms: O_1  and  C_2
REMARK    2  A    between atoms: C_2  and  C_3
REMARK    3  A    between atoms: C_5  and  O_6
REMARK    4  A    between atoms: C_7  and  O_8
REMARK    5  A    between atoms: C_9  and  O_10
REMARK                            x       y       z     vdW  Elec       q    Type
REMARK                         _______ _______ _______ _____ _____    ______ ____
ROOT
ATOM      1  C   UNL     1       4.226  -1.934   0.484  1.00  0.00    +0.000 C 
ATOM      2  O   UNL     1       4.054  -2.780   1.631  1.00  0.00    +0.000 OA
ATOM      3  C   UNL     1       2.909  -2.070  -0.322  1.00  0.00    +0.000 C 
ATOM      4  C   UNL     1       1.871  -2.182   0.829  1.00  0.00    +0.000 C 
ATOM      5  C   UNL     1       2.661  -2.950   1.910  1.00  0.00    +0.000 C 
ENDROOT
BRANCH   3   6
ATOM      6  O   UNL     1       2.668  -0.911  -1.122  1.00  0.00    +0.000 OA
ATOM      7  H   UNL     1       3.190  -0.193  -0.739  1.00  0.00    +0.000 HD
ENDBRANCH   3   6
BRANCH   4   8
ATOM      8  O   UNL     1       0.723  -2.923   0.414  1.00  0.00    +0.000 OA
ATOM      9  H   UNL     1       0.870  -3.175  -0.508  1.00  0.00    +0.000 HD
ENDBRANCH   4   8
BRANCH   5  10
ATOM     10  O   UNL     1       2.357  -2.421   3.201  1.00  0.00    +0.000 OA
ATOM     11  H   UNL     1       2.726  -1.527   3.231  1.00  0.00    +0.000 HD
ENDBRANCH   5  10
BRANCH   1  12
ATOM     12  C   UNL     1       5.413  -2.409  -0.355  1.00  0.00    +0.000 C 
BRANCH  12  13
ATOM     13  O   UNL     1       4.941  -3.217  -1.434  1.00  0.00    +0.000 OA
ATOM     14  H   UNL     1       4.751  -4.092  -1.066  1.00  0.00    +0.000 HD
ENDBRANCH  12  13
ENDBRANCH   1  12
TORSDOF 5
ENDMDL
MODEL 8
REMARK VINA RESULT:    -4.927      1.319      3.397
REMARK INTER + INTRA:          -6.029
REMARK INTER:                  -5.996
REMARK INTRA:                  -0.033
REMARK UNBOUND:                -0.238
REMARK  Name = AHR
REMARK  5 active torsions:
REMARK  status: ('A' for Active; 'I' for Inactive)
REMARK    1  A    between atoms: O_1  and  C_2
REMARK    2  A    between atoms: C_2  and  C_3
REMARK    3  A    between atoms: C_5  and  O_6
REMARK    4  A    between atoms: C_7  and  O_8
REMARK    5  A    between atoms: C_9  and  O_10
REMARK                            x       y       z     vdW  Elec       q    Type
REMARK                         _______ _______ _______ _____ _____    ______ ____
ROOT
ATOM      1  C   UNL     1       3.161  -2.269   1.787  1.00  0.00    +0.000 C 
ATOM      2  O   UNL     1       4.153  -1.235   1.693  1.00  0.00    +0.000 OA
ATOM      3  C   UNL     1       3.129  -2.929   0.385  1.00  0.00    +0.000 C 
ATOM      4  C   UNL     1       4.632  -2.864  -0.004  1.00  0.00    +0.000 C 
ATOM      5  C   UNL     1       5.085  -1.544   0.652  1.00  0.00    +0.000 C 
ENDROOT
BRANCH   3   6
ATOM      6  O   UNL     1       2.672  -4.281   0.458  1.00  0.00    +0.000 OA
ATOM      7  H   UNL     1       3.227  -4.728   1.111  1.00  0.00    +0.000 HD
ENDBRANCH   3   6
BRANCH   4   8
ATOM      8  O   UNL     1       4.793  -2.810  -1.422  1.00  0.00    +0.000 OA
ATOM      9  H   UNL     1       5.017  -3.705  -1.713  1.00  0.00    +0.000 HD
ENDBRANCH   4   8
BRANCH   5  10
ATOM     10  O   UNL     1       6.394  -1.699   1.203  1.00  0.00    +0.000 OA
ATOM     11  H   UNL     1       6.329  -2.378   1.890  1.00  0.00    +0.000 HD
ENDBRANCH   5  10
BRANCH   1  12
ATOM     12  C   UNL     1       1.795  -1.667   2.122  1.00  0.00    +0.000 C 
BRANCH  12  13
ATOM     13  O   UNL     1       1.974  -0.491   2.912  1.00  0.00    +0.000 OA
ATOM     14  H   UNL     1       1.796   0.264   2.334  1.00  0.00    +0.000 HD
ENDBRANCH  12  13
ENDBRANCH   1  12
TORSDOF 5
ENDMDL
MODEL 9
REMARK VINA RESULT:    -4.448      1.513      2.803
REMARK INTER + INTRA:          -5.466
REMARK INTER:                  -5.220
REMARK INTRA:                  -0.246
REMARK UNBOUND:                -0.238
REMARK  Name = AHR
REMARK  5 active torsions:
REMARK  status: ('A' for Active; 'I' for Inactive)
REMARK    1  A    between atoms: O_1  and  C_2
REMARK    2  A    between atoms: C_2  and  C_3
REMARK    3  A    between atoms: C_5  and  O_6
REMARK    4  A    between atoms: C_7  and  O_8
REMARK    5  A    between atoms: C_9  and  O_10
REMARK                            x       y       z     vdW  Elec       q    Type
REMARK                         _______ _______ _______ _____ _____    ______ ____
ROOT
ATOM      1  C   UNL     1       4.115  -2.420   0.393  1.00  0.00    +0.000 C 
ATOM      2  O   UNL     1       2.889  -2.358  -0.351  1.00  0.00    +0.000 OA
ATOM      3  C   UNL     1       3.862  -1.571   1.665  1.00  0.00    +0.000 C 
ATOM      4  C   UNL     1       2.372  -1.907   1.950  1.00  0.00    +0.000 C 
ATOM      5  C   UNL     1       1.796  -2.079   0.529  1.00  0.00    +0.000 C 
ENDROOT
BRANCH   3   6
ATOM      6  O   UNL     1       4.700  -1.989   2.743  1.00  0.00    +0.000 OA
ATOM      7  H   UNL     1       4.983  -1.187   3.204  1.00  0.00    +0.000 HD
ENDBRANCH   3   6
BRANCH   4   8
ATOM      8  O   UNL     1       1.726  -0.834   2.635  1.00  0.00    +0.000 OA
ATOM      9  H   UNL     1       2.295  -0.594   3.379  1.00  0.00    +0.000 HD
ENDBRANCH   4   8
BRANCH   5  10
ATOM     10  O   UNL     1       0.868  -3.164   0.508  1.00  0.00    +0.000 OA
ATOM     11  H   UNL     1       1.296  -3.907   0.955  1.00  0.00    +0.000 HD
ENDBRANCH   5  10
BRANCH   1  12
ATOM     12  C   UNL     1       5.264  -1.825  -0.423  1.00  0.00    +0.000 C 
BRANCH  12  13
ATOM     13  O   UNL     1       5.707  -0.615   0.192  1.00  0.00    +0.000 OA
ATOM     14  H   UNL     1       5.584   0.091  -0.459  1.00  0.00    +0.000 HD
ENDBRANCH  12  13
ENDBRANCH   1  12
TORSDOF 5
ENDMDL
