MODEL 1
REMARK VINA RESULT:    -5.221      0.000      0.000
REMARK INTER + INTRA:          -8.281
REMARK INTER:                  -7.663
REMARK INTRA:                  -0.618
REMARK UNBOUND:                -0.618
REMARK  Name = X9X
REMARK  11 active torsions:
REMARK  status: ('A' for Active; 'I' for Inactive)
REMARK    1  A    between atoms: O_1  and  C_2
REMARK    2  A    between atoms: C_2  and  C_3
REMARK    3  A    between atoms: C_3  and  O_4
REMARK    4  A    between atoms: C_3  and  C_5
REMARK    5  A    between atoms: C_5  and  O_6
REMARK    6  A    between atoms: C_5  and  C_7
REMARK    7  A    between atoms: C_7  and  O_8
REMARK    8  A    between atoms: C_7  and  C_9
REMARK    9  A    between atoms: C_9  and  O_10
REMARK   10  A    between atoms: C_9  and  C_11
REMARK   11  A    between atoms: C_11  and  O_12
REMARK                            x       y       z     vdW  Elec       q    Type
REMARK                         _______ _______ _______ _____ _____    ______ ____
ROOT
ATOM      1  C   UNL     1       2.950  -1.327  -0.292  1.00  0.00    +0.000 C 
ENDROOT
BRANCH   1   2
ATOM      2  O   UNL     1       2.752  -2.018  -1.526  1.00  0.00    +0.000 OA
ATOM      3  H   UNL     1       2.917  -1.477  -2.311  1.00  0.00    +0.000 HD
ENDBRANCH   1   2
BRANCH   1   4
ATOM      4  C   UNL     1       4.319  -1.693   0.284  1.00  0.00    +0.000 C 
BRANCH   4   5
ATOM      5  O   UNL     1       5.188  -0.562   0.204  1.00  0.00    +0.000 OA
ATOM      6  H   UNL     1       5.200  -0.136  -0.665  1.00  0.00    +0.000 HD
ENDBRANCH   4   5
BRANCH   4   7
ATOM      7  C   UNL     1       4.915  -2.852  -0.516  1.00  0.00    +0.000 C 
BRANCH   7   8
ATOM      8  O   UNL     1       4.112  -4.020  -0.335  1.00  0.00    +0.000 OA
ATOM      9  H   UNL     1       3.216  -3.941  -0.688  1.00  0.00    +0.000 HD
ENDBRANCH   7   8
ENDBRANCH   4   7
ENDBRANCH   1   4
BRANCH   1  10
ATOM     10  C   UNL     1       1.855  -1.728   0.700  1.00  0.00    +0.000 C 
BRANCH  10  11
ATOM     11  O   UNL     1       1.370  -3.032   0.372  1.00  0.00    +0.000 OA
ATOM     12  H   UNL     1       0.414  -3.133   0.474  1.00  0.00    +0.000 HD
ENDBRANCH  10  11
BRANCH  10  13
ATOM     13  C   UNL     1       2.429  -1.739   2.117  1.00  0.00    +0.000 C 
BRANCH  13  14
ATOM     14  O   UNL     1       1.735  -0.781   2.919  1.00  0.00    +0.000 OA
ATOM     15  H   UNL     1       1.263  -0.109   2.409  1.00  0.00    +0.000 HD
ENDBRANCH  13  14
BRANCH  13  16
ATOM     16  C   UNL     1       2.259  -3.132   2.726  1.00  0.00    +0.000 C 
BRANCH  16  17
ATOM     17  O   UNL     1       2.199  -3.026   4.150  1.00  0.00    +0.000 OA
ATOM     18  H   UNL     1       2.981  -2.621   4.549  1.00  0.00    +0.000 HD
ENDBRANCH  16  17
ENDBRANCH  13  16
ENDBRANCH  10  13
ENDBRANCH   1  10
TORSDOF 11
ENDMDL
MODEL 2
REMARK VINA RESULT:    -5.200      1.126      4.265
REMARK INTER + INTRA:          -8.249
REMARK INTER:                  -8.006
REMARK INTRA:                  -0.244
REMARK UNBOUND:                -0.618
REMARK  Name = X9X
REMARK  11 active torsions:
REMARK  status: ('A' for Active; 'I' for Inactive)
REMARK    1  A    between atoms: O_1  and  C_2
REMARK    2  A    between atoms: C_2  and  C_3
REMARK    3  A    between atoms: C_3  and  O_4
REMARK    4  A    between atoms: C_3  and  C_5
REMARK    5  A    between atoms: C_5  and  O_6
REMARK    6  A    between atoms: C_5  and  C_7
REMARK    7  A    between atoms: C_7  and  O_8
REMARK    8  A    between atoms: C_7  and  C_9
REMARK    9  A    between atoms: C_9  and  O_10
REMARK   10  A    between atoms: C_9  and  C_11
REMARK   11  A    between atoms: C_11  and  O_12
REMARK                            x       y       z     vdW  Elec       q    Type
REMARK                         _______ _______ _______ _____ _____    ______ ____
ROOT
ATOM      1  C   UNL     1       3.722  -1.159   1.902  1.00  0.00    +0.000 C 
ENDROOT
BRANCH   1   2
ATOM      2  O   UNL     1       4.658  -2.008   2.570  1.00  0.00    +0.000 OA
ATOM      3  H   UNL     1       4.380  -2.280   3.455  1.00  0.00    +0.000 HD
ENDBRANCH   1   2
BRANCH   1   4
ATOM      4  C   UNL     1       2.313  -1.733   2.056  1.00  0.00    +0.000 C 
BRANCH   4   5
ATOM      5  O   UNL     1       1.535  -0.872   2.889  1.00  0.00    +0.000 OA
ATOM      6  H   UNL     1       0.771  -1.304   3.296  1.00  0.00    +0.000 HD
ENDBRANCH   4   5
BRANCH   4   7
ATOM      7  C   UNL     1       2.394  -3.122   2.692  1.00  0.00    +0.000 C 
BRANCH   7   8
ATOM      8  O   UNL     1       2.280  -3.003   4.112  1.00  0.00    +0.000 OA
ATOM      9  H   UNL     1       2.686  -3.730   4.602  1.00  0.00    +0.000 HD
ENDBRANCH   7   8
ENDBRANCH   4   7
ENDBRANCH   1   4
BRANCH   1  10
ATOM     10  C   UNL     1       4.080  -1.072   0.417  1.00  0.00    +0.000 C 
BRANCH  10  11
ATOM     11  O   UNL     1       5.434  -0.640   0.277  1.00  0.00    +0.000 OA
ATOM     12  H   UNL     1       5.798  -0.768  -0.610  1.00  0.00    +0.000 HD
ENDBRANCH  10  11
BRANCH  10  13
ATOM     13  C   UNL     1       3.914  -2.449  -0.229  1.00  0.00    +0.000 C 
BRANCH  13  14
ATOM     14  O   UNL     1       2.998  -2.357  -1.321  1.00  0.00    +0.000 OA
ATOM     15  H   UNL     1       2.447  -3.142  -1.440  1.00  0.00    +0.000 HD
ENDBRANCH  13  14
BRANCH  13  16
ATOM     16  C   UNL     1       5.270  -2.938  -0.741  1.00  0.00    +0.000 C 
BRANCH  16  17
ATOM     17  O   UNL     1       5.071  -3.846  -1.827  1.00  0.00    +0.000 OA
ATOM     18  H   UNL     1       4.142  -4.011  -2.037  1.00  0.00    +0.000 HD
ENDBRANCH  16  17
ENDBRANCH  13  16
ENDBRANCH  10  13
ENDBRANCH   1  10
TORSDOF 11
ENDMDL
MODEL 3
REMARK VINA RESULT:    -5.041      1.123      3.888
REMARK INTER + INTRA:          -8.017
REMARK INTER:                  -7.190
REMARK INTRA:                  -0.827
REMARK UNBOUND:                -0.618
REMARK  Name = X9X
REMARK  11 active torsions:
REMARK  status: ('A' for Active; 'I' for Inactive)
REMARK    1  A    between atoms: O_1  and  C_2
REMARK    2  A    between atoms: C_2  and  C_3
REMARK    3  A    between atoms: C_3  and  O_4
REMARK    4  A    between atoms: C_3  and  C_5
REMARK    5  A    between atoms: C_5  and  O_6
REMARK    6  A    between atoms: C_5  and  C_7
REMARK    7  A    between atoms: C_7  and  O_8
REMARK    8  A    between atoms: C_7  and  C_9
REMARK    9  A    between atoms: C_9  and  O_10
REMARK   10  A    between atoms: C_9  and  C_11
REMARK   11  A    between atoms: C_11  and  O_12
REMARK                            x       y       z     vdW  Elec       q    Type
REMARK                         _______ _______ _______ _____ _____    ______ ____
ROOT
ATOM      1  C   UNL     1       2.180  -2.167   0.738  1.00  0.00    +0.000 C 
ENDROOT
BRANCH   1   2
ATOM      2  O   UNL     1       2.097  -1.019  -0.108  1.00  0.00    +0.000 OA
ATOM      3  H   UNL     1       1.204  -0.827  -0.424  1.00  0.00    +0.000 HD
ENDBRANCH   1   2
BRANCH   1   4
ATOM      4  C   UNL     1       1.984  -1.743   2.195  1.00  0.00    +0.000 C 
BRANCH   4   5
ATOM      5  O   UNL     1       2.804  -0.607   2.475  1.00  0.00    +0.000 OA
ATOM      6  H   UNL     1       2.538   0.195   2.006  1.00  0.00    +0.000 HD
ENDBRANCH   4   5
BRANCH   4   7
ATOM      7  C   UNL     1       2.378  -2.897   3.119  1.00  0.00    +0.000 C 
BRANCH   7   8
ATOM      8  O   UNL     1       1.536  -2.892   4.274  1.00  0.00    +0.000 OA
ATOM      9  H   UNL     1       0.832  -2.231   4.245  1.00  0.00    +0.000 HD
ENDBRANCH   7   8
ENDBRANCH   4   7
ENDBRANCH   1   4
BRANCH   1  10
ATOM     10  C   UNL     1       3.553  -2.823   0.577  1.00  0.00    +0.000 C 
BRANCH  10  11
ATOM     11  O   UNL     1       3.395  -4.134   0.033  1.00  0.00    +0.000 OA
ATOM     12  H   UNL     1       2.970  -4.151  -0.836  1.00  0.00    +0.000 HD
ENDBRANCH  10  11
BRANCH  10  13
ATOM     13  C   UNL     1       4.414  -1.980  -0.365  1.00  0.00    +0.000 C 
BRANCH  13  14
ATOM     14  O   UNL     1       4.881  -0.819   0.325  1.00  0.00    +0.000 OA
ATOM     15  H   UNL     1       5.183  -0.110  -0.258  1.00  0.00    +0.000 HD
ENDBRANCH  13  14
BRANCH  13  16
ATOM     16  C   UNL     1       5.610  -2.806  -0.840  1.00  0.00    +0.000 C 
BRANCH  16  17
ATOM     17  O   UNL     1       5.214  -3.635  -1.935  1.00  0.00    +0.000 OA
ATOM     18  H   UNL     1       4.490  -4.241  -1.728  1.00  0.00    +0.000 HD
ENDBRANCH  16  17
ENDBRANCH  13  16
ENDBRANCH  10  13
ENDBRANCH   1  10
TORSDOF 11
ENDMDL
MODEL 4
REMARK VINA RESULT:    -4.847     10.870     12.493
REMARK INTER + INTRA:          -7.731
REMARK INTER:                  -6.726
REMARK INTRA:                  -1.005
REMARK UNBOUND:                -0.618
REMARK  Name = X9X
REMARK  11 active torsions:
REMARK  status: ('A' for Active; 'I' for Inactive)
REMARK    1  A    between atoms: O_1  and  C_2
REMARK    2  A    between atoms: C_2  and  C_3
REMARK    3  A    between atoms: C_3  and  O_4
REMARK    4  A    between atoms: C_3  and  C_5
REMARK    5  A    between atoms: C_5  and  O_6
REMARK    6  A    between atoms: C_5  and  C_7
REMARK    7  A    between atoms: C_7  and  O_8
REMARK    8  A    between atoms: C_7  and  C_9
REMARK    9  A    between atoms: C_9  and  O_10
REMARK   10  A    between atoms: C_9  and  C_11
REMARK   11  A    between atoms: C_11  and  O_12
REMARK                            x       y       z     vdW  Elec       q    Type
REMARK                         _______ _______ _______ _____ _____    ______ ____
ROOT
ATOM      1  C   UNL     1      -7.054  -8.111   1.054  1.00  0.00    +0.000 C 
ENDROOT
BRANCH   1   2
ATOM      2  O   UNL     1      -5.982  -8.043   0.112  1.00  0.00    +0.000 OA
ATOM      3  H   UNL     1      -6.107  -8.603  -0.667  1.00  0.00    +0.000 HD
ENDBRANCH   1   2
BRANCH   1   4
ATOM      4  C   UNL     1      -6.484  -8.203   2.470  1.00  0.00    +0.000 C 
BRANCH   4   5
ATOM      5  O   UNL     1      -7.433  -7.679   3.401  1.00  0.00    +0.000 OA
ATOM      6  H   UNL     1      -7.900  -8.356   3.910  1.00  0.00    +0.000 HD
ENDBRANCH   4   5
BRANCH   4   7
ATOM      7  C   UNL     1      -5.189  -7.393   2.552  1.00  0.00    +0.000 C 
BRANCH   7   8
ATOM      8  O   UNL     1      -4.070  -8.263   2.370  1.00  0.00    +0.000 OA
ATOM      9  H   UNL     1      -3.978  -8.937   3.057  1.00  0.00    +0.000 HD
ENDBRANCH   7   8
ENDBRANCH   4   7
ENDBRANCH   1   4
BRANCH   1  10
ATOM     10  C   UNL     1      -7.909  -9.347   0.766  1.00  0.00    +0.000 C 
BRANCH  10  11
ATOM     11  O   UNL     1      -8.813  -9.564   1.851  1.00  0.00    +0.000 OA
ATOM     12  H   UNL     1      -8.504  -9.212   2.697  1.00  0.00    +0.000 HD
ENDBRANCH  10  11
BRANCH  10  13
ATOM     13  C   UNL     1      -8.703  -9.130  -0.523  1.00  0.00    +0.000 C 
BRANCH  13  14
ATOM     14  O   UNL     1      -8.529  -7.784  -0.969  1.00  0.00    +0.000 OA
ATOM     15  H   UNL     1      -7.812  -7.311  -0.524  1.00  0.00    +0.000 HD
ENDBRANCH  13  14
BRANCH  13  16
ATOM     16  C   UNL     1      -8.198 -10.093  -1.600  1.00  0.00    +0.000 C 
BRANCH  16  17
ATOM     17  O   UNL     1      -7.013  -9.562  -2.197  1.00  0.00    +0.000 OA
ATOM     18  H   UNL     1      -6.553  -8.912  -1.649  1.00  0.00    +0.000 HD
ENDBRANCH  16  17
ENDBRANCH  13  16
ENDBRANCH  10  13
ENDBRANCH   1  10
TORSDOF 11
ENDMDL
MODEL 5
REMARK VINA RESULT:    -4.826      1.420      4.246
REMARK INTER + INTRA:          -7.701
REMARK INTER:                  -6.888
REMARK INTRA:                  -0.814
REMARK UNBOUND:                -0.618
REMARK  Name = X9X
REMARK  11 active torsions:
REMARK  status: ('A' for Active; 'I' for Inactive)
REMARK    1  A    between atoms: O_1  and  C_2
REMARK    2  A    between atoms: C_2  and  C_3
REMARK    3  A    between atoms: C_3  and  O_4
REMARK    4  A    between atoms: C_3  and  C_5
REMARK    5  A    between atoms: C_5  and  O_6
REMARK    6  A    between atoms: C_5  and  C_7
REMARK    7  A    between atoms: C_7  and  O_8
REMARK    8  A    between atoms: C_7  and  C_9
REMARK    9  A    between atoms: C_9  and  O_10
REMARK   10  A    between atoms: C_9  and  C_11
REMARK   11  A    between atoms: C_11  and  O_12
REMARK                            x       y       z     vdW  Elec       q    Type
REMARK                         _______ _______ _______ _____ _____    ______ ____
ROOT
ATOM      1  C   UNL     1       3.513  -1.957   1.673  1.00  0.00    +0.000 C 
ENDROOT
BRANCH   1   2
ATOM      2  O   UNL     1       4.147  -1.975   2.953  1.00  0.00    +0.000 OA
ATOM      3  H   UNL     1       5.111  -2.044   2.913  1.00  0.00    +0.000 HD
ENDBRANCH   1   2
BRANCH   1   4
ATOM      4  C   UNL     1       2.014  -2.211   1.842  1.00  0.00    +0.000 C 
BRANCH   4   5
ATOM      5  O   UNL     1       1.282  -1.344   0.975  1.00  0.00    +0.000 OA
ATOM      6  H   UNL     1       1.622  -0.439   0.946  1.00  0.00    +0.000 HD
ENDBRANCH   4   5
BRANCH   4   7
ATOM      7  C   UNL     1       1.612  -1.940   3.293  1.00  0.00    +0.000 C 
BRANCH   7   8
ATOM      8  O   UNL     1       1.958  -3.065   4.103  1.00  0.00    +0.000 OA
ATOM      9  H   UNL     1       1.265  -3.335   4.720  1.00  0.00    +0.000 HD
ENDBRANCH   7   8
ENDBRANCH   4   7
ENDBRANCH   1   4
BRANCH   1  10
ATOM     10  C   UNL     1       4.119  -3.048   0.787  1.00  0.00    +0.000 C 
BRANCH  10  11
ATOM     11  O   UNL     1       3.073  -3.766   0.132  1.00  0.00    +0.000 OA
ATOM     12  H   UNL     1       2.964  -3.538  -0.802  1.00  0.00    +0.000 HD
ENDBRANCH  10  11
BRANCH  10  13
ATOM     13  C   UNL     1       5.032  -2.407  -0.260  1.00  0.00    +0.000 C 
BRANCH  13  14
ATOM     14  O   UNL     1       4.987  -3.173  -1.465  1.00  0.00    +0.000 OA
ATOM     15  H   UNL     1       5.857  -3.369  -1.838  1.00  0.00    +0.000 HD
ENDBRANCH  13  14
BRANCH  13  16
ATOM     16  C   UNL     1       4.557  -0.980  -0.545  1.00  0.00    +0.000 C 
BRANCH  16  17
ATOM     17  O   UNL     1       3.315  -1.023  -1.251  1.00  0.00    +0.000 OA
ATOM     18  H   UNL     1       3.405  -0.948  -2.210  1.00  0.00    +0.000 HD
ENDBRANCH  16  17
ENDBRANCH  13  16
ENDBRANCH  10  13
ENDBRANCH   1  10
TORSDOF 11
ENDMDL
MODEL 6
REMARK VINA RESULT:    -4.730      1.783      2.166
REMARK INTER + INTRA:          -7.560
REMARK INTER:                  -7.307
REMARK INTRA:                  -0.253
REMARK UNBOUND:                -0.618
REMARK  Name = X9X
REMARK  11 active torsions:
REMARK  status: ('A' for Active; 'I' for Inactive)
REMARK    1  A    between atoms: O_1  and  C_2
REMARK    2  A    between atoms: C_2  and  C_3
REMARK    3  A    between atoms: C_3  and  O_4
REMARK    4  A    between atoms: C_3  and  C_5
REMARK    5  A    between atoms: C_5  and  O_6
REMARK    6  A    between atoms: C_5  and  C_7
REMARK    7  A    between atoms: C_7  and  O_8
REMARK    8  A    between atoms: C_7  and  C_9
REMARK    9  A    between atoms: C_9  and  O_10
REMARK   10  A    between atoms: C_9  and  C_11
REMARK   11  A    between atoms: C_11  and  O_12
REMARK                            x       y       z     vdW  Elec       q    Type
REMARK                         _______ _______ _______ _____ _____    ______ ____
ROOT
ATOM      1  C   UNL     1       2.668  -2.155   0.517  1.00  0.00    +0.000 C 
ENDROOT
BRANCH   1   2
ATOM      2  O   UNL     1       2.602  -3.580   0.446  1.00  0.00    +0.000 OA
ATOM      3  H   UNL     1       1.971  -3.913  -0.206  1.00  0.00    +0.000 HD
ENDBRANCH   1   2
BRANCH   1   4
ATOM      4  C   UNL     1       3.954  -1.669  -0.154  1.00  0.00    +0.000 C 
BRANCH   4   5
ATOM      5  O   UNL     1       3.644  -1.109  -1.431  1.00  0.00    +0.000 OA
ATOM      6  H   UNL     1       3.200  -0.252  -1.387  1.00  0.00    +0.000 HD
ENDBRANCH   4   5
BRANCH   4   7
ATOM      7  C   UNL     1       4.912  -2.848  -0.333  1.00  0.00    +0.000 C 
BRANCH   7   8
ATOM      8  O   UNL     1       4.729  -3.418  -1.631  1.00  0.00    +0.000 OA
ATOM      9  H   UNL     1       4.968  -2.828  -2.358  1.00  0.00    +0.000 HD
ENDBRANCH   7   8
ENDBRANCH   4   7
ENDBRANCH   1   4
BRANCH   1  10
ATOM     10  C   UNL     1       2.659  -1.715   1.983  1.00  0.00    +0.000 C 
BRANCH  10  11
ATOM     11  O   UNL     1       2.556  -2.864   2.825  1.00  0.00    +0.000 OA
ATOM     12  H   UNL     1       2.161  -3.634   2.393  1.00  0.00    +0.000 HD
ENDBRANCH  10  11
BRANCH  10  13
ATOM     13  C   UNL     1       3.954  -0.965   2.298  1.00  0.00    +0.000 C 
BRANCH  13  14
ATOM     14  O   UNL     1       3.644   0.274   2.939  1.00  0.00    +0.000 OA
ATOM     15  H   UNL     1       3.886   1.055   2.422  1.00  0.00    +0.000 HD
ENDBRANCH  13  14
BRANCH  13  16
ATOM     16  C   UNL     1       4.822  -1.815   3.228  1.00  0.00    +0.000 C 
BRANCH  16  17
ATOM     17  O   UNL     1       5.394  -0.983   4.240  1.00  0.00    +0.000 OA
ATOM     18  H   UNL     1       4.760  -0.675   4.902  1.00  0.00    +0.000 HD
ENDBRANCH  16  17
ENDBRANCH  13  16
ENDBRANCH  10  13
ENDBRANCH   1  10
TORSDOF 11
ENDMDL
MODEL 7
REMARK VINA RESULT:    -4.567      1.459      2.763
REMARK INTER + INTRA:          -7.321
REMARK INTER:                  -7.414
REMARK INTRA:                   0.093
REMARK UNBOUND:                -0.618
REMARK  Name = X9X
REMARK  11 active torsions:
REMARK  status: ('A' for Active; 'I' for Inactive)
REMARK    1  A    between atoms: O_1  and  C_2
REMARK    2  A    between atoms: C_2  and  C_3
REMARK    3  A    between atoms: C_3  and  O_4
REMARK    4  A    between atoms: C_3  and  C_5
REMARK    5  A    between atoms: C_5  and  O_6
REMARK    6  A    between atoms: C_5  and  C_7
REMARK    7  A    between atoms: C_7  and  O_8
REMARK    8  A    between atoms: C_7  and  C_9
REMARK    9  A    between atoms: C_9  and  O_10
REMARK   10  A    between atoms: C_9  and  C_11
REMARK   11  A    between atoms: C_11  and  O_12
REMARK                            x       y       z     vdW  Elec       q    Type
REMARK                         _______ _______ _______ _____ _____    ______ ____
ROOT
ATOM      1  C   UNL     1       4.774  -2.474   1.492  1.00  0.00    +0.000 C 
ENDROOT
BRANCH   1   2
ATOM      2  O   UNL     1       5.947  -1.691   1.262  1.00  0.00    +0.000 OA
ATOM      3  H   UNL     1       6.209  -1.143   2.015  1.00  0.00    +0.000 HD
ENDBRANCH   1   2
BRANCH   1   4
ATOM      4  C   UNL     1       3.944  -2.540   0.209  1.00  0.00    +0.000 C 
BRANCH   4   5
ATOM      5  O   UNL     1       3.264  -3.795   0.145  1.00  0.00    +0.000 OA
ATOM      6  H   UNL     1       3.057  -4.174   1.010  1.00  0.00    +0.000 HD
ENDBRANCH   4   5
BRANCH   4   7
ATOM      7  C   UNL     1       4.867  -2.398  -1.002  1.00  0.00    +0.000 C 
BRANCH   7   8
ATOM      8  O   UNL     1       5.104  -3.685  -1.576  1.00  0.00    +0.000 OA
ATOM      9  H   UNL     1       4.950  -3.727  -2.529  1.00  0.00    +0.000 HD
ENDBRANCH   7   8
ENDBRANCH   4   7
ENDBRANCH   1   4
BRANCH   1  10
ATOM     10  C   UNL     1       3.943  -1.832   2.606  1.00  0.00    +0.000 C 
BRANCH  10  11
ATOM     11  O   UNL     1       3.700  -0.460   2.289  1.00  0.00    +0.000 OA
ATOM     12  H   UNL     1       2.822  -0.291   1.922  1.00  0.00    +0.000 HD
ENDBRANCH  10  11
BRANCH  10  13
ATOM     13  C   UNL     1       2.609  -2.569   2.737  1.00  0.00    +0.000 C 
BRANCH  13  14
ATOM     14  O   UNL     1       2.464  -3.060   4.071  1.00  0.00    +0.000 OA
ATOM     15  H   UNL     1       2.457  -4.025   4.136  1.00  0.00    +0.000 HD
ENDBRANCH  13  14
BRANCH  13  16
ATOM     16  C   UNL     1       1.462  -1.608   2.419  1.00  0.00    +0.000 C 
BRANCH  16  17
ATOM     17  O   UNL     1       1.142  -1.691   1.029  1.00  0.00    +0.000 OA
ATOM     18  H   UNL     1       1.868  -2.006   0.475  1.00  0.00    +0.000 HD
ENDBRANCH  16  17
ENDBRANCH  13  16
ENDBRANCH  10  13
ENDBRANCH   1  10
TORSDOF 11
ENDMDL
MODEL 8
REMARK VINA RESULT:    -4.503      1.302      3.906
REMARK INTER + INTRA:          -7.227
REMARK INTER:                  -6.491
REMARK INTRA:                  -0.736
REMARK UNBOUND:                -0.618
REMARK  Name = X9X
REMARK  11 active torsions:
REMARK  status: ('A' for Active; 'I' for Inactive)
REMARK    1  A    between atoms: O_1  and  C_2
REMARK    2  A    between atoms: C_2  and  C_3
REMARK    3  A    between atoms: C_3  and  O_4
REMARK    4  A    between atoms: C_3  and  C_5
REMARK    5  A    between atoms: C_5  and  O_6
REMARK    6  A    between atoms: C_5  and  C_7
REMARK    7  A    between atoms: C_7  and  O_8
REMARK    8  A    between atoms: C_7  and  C_9
REMARK    9  A    between atoms: C_9  and  O_10
REMARK   10  A    between atoms: C_9  and  C_11
REMARK   11  A    between atoms: C_11  and  O_12
REMARK                            x       y       z     vdW  Elec       q    Type
REMARK                         _______ _______ _______ _____ _____    ______ ____
ROOT
ATOM      1  C   UNL     1       2.903  -3.364   1.256  1.00  0.00    +0.000 C 
ENDROOT
BRANCH   1   2
ATOM      2  O   UNL     1       1.912  -3.257   0.231  1.00  0.00    +0.000 OA
ATOM      3  H   UNL     1       2.219  -2.804  -0.566  1.00  0.00    +0.000 HD
ENDBRANCH   1   2
BRANCH   1   4
ATOM      4  C   UNL     1       2.666  -2.281   2.310  1.00  0.00    +0.000 C 
BRANCH   4   5
ATOM      5  O   UNL     1       2.597  -2.882   3.604  1.00  0.00    +0.000 OA
ATOM      6  H   UNL     1       3.354  -3.445   3.817  1.00  0.00    +0.000 HD
ENDBRANCH   4   5
BRANCH   4   7
ATOM      7  C   UNL     1       1.350  -1.559   2.012  1.00  0.00    +0.000 C 
BRANCH   7   8
ATOM      8  O   UNL     1       1.440  -0.907   0.744  1.00  0.00    +0.000 OA
ATOM      9  H   UNL     1       0.717  -0.292   0.565  1.00  0.00    +0.000 HD
ENDBRANCH   7   8
ENDBRANCH   4   7
ENDBRANCH   1   4
BRANCH   1  10
ATOM     10  C   UNL     1       4.293  -3.185   0.643  1.00  0.00    +0.000 C 
BRANCH  10  11
ATOM     11  O   UNL     1       4.254  -3.541  -0.740  1.00  0.00    +0.000 OA
ATOM     12  H   UNL     1       3.781  -2.907  -1.297  1.00  0.00    +0.000 HD
ENDBRANCH  10  11
BRANCH  10  13
ATOM     13  C   UNL     1       4.728  -1.725   0.781  1.00  0.00    +0.000 C 
BRANCH  13  14
ATOM     14  O   UNL     1       6.030  -1.668   1.366  1.00  0.00    +0.000 OA
ATOM     15  H   UNL     1       6.563  -2.461   1.215  1.00  0.00    +0.000 HD
ENDBRANCH  13  14
BRANCH  13  16
ATOM     16  C   UNL     1       4.760  -1.069  -0.600  1.00  0.00    +0.000 C 
BRANCH  16  17
ATOM     17  O   UNL     1       3.425  -0.927  -1.092  1.00  0.00    +0.000 OA
ATOM     18  H   UNL     1       3.374  -0.658  -2.019  1.00  0.00    +0.000 HD
ENDBRANCH  16  17
ENDBRANCH  13  16
ENDBRANCH  10  13
ENDBRANCH   1  10
TORSDOF 11
ENDMDL
MODEL 9
REMARK VINA RESULT:    -4.438      1.221      2.331
REMARK INTER + INTRA:          -7.131
REMARK INTER:                  -6.323
REMARK INTRA:                  -0.808
REMARK UNBOUND:                -0.618
REMARK  Name = X9X
REMARK  11 active torsions:
REMARK  status: ('A' for Active; 'I' for Inactive)
REMARK    1  A    between atoms: O_1  and  C_2
REMARK    2  A    between atoms: C_2  and  C_3
REMARK    3  A    between atoms: C_3  and  O_4
REMARK    4  A    between atoms: C_3  and  C_5
REMARK    5  A    between atoms: C_5  and  O_6
REMARK    6  A    between atoms: C_5  and  C_7
REMARK    7  A    between atoms: C_7  and  O_8
REMARK    8  A    between atoms: C_7  and  C_9
REMARK    9  A    between atoms: C_9  and  O_10
REMARK   10  A    between atoms: C_9  and  C_11
REMARK   11  A    between atoms: C_11  and  O_12
REMARK                            x       y       z     vdW  Elec       q    Type
REMARK                         _______ _______ _______ _____ _____    ______ ____
ROOT
ATOM      1  C   UNL     1       3.440  -1.256  -0.070  1.00  0.00    +0.000 C 
ENDROOT
BRANCH   1   2
ATOM      2  O   UNL     1       2.251  -1.725  -0.710  1.00  0.00    +0.000 OA
ATOM      3  H   UNL     1       2.079  -1.315  -1.569  1.00  0.00    +0.000 HD
ENDBRANCH   1   2
BRANCH   1   4
ATOM      4  C   UNL     1       4.664  -1.853  -0.768  1.00  0.00    +0.000 C 
BRANCH   4   5
ATOM      5  O   UNL     1       4.347  -3.158  -1.255  1.00  0.00    +0.000 OA
ATOM      6  H   UNL     1       5.013  -3.528  -1.850  1.00  0.00    +0.000 HD
ENDBRANCH   4   5
BRANCH   4   7
ATOM      7  C   UNL     1       5.822  -1.948   0.228  1.00  0.00    +0.000 C 
BRANCH   7   8
ATOM      8  O   UNL     1       6.482  -0.683   0.314  1.00  0.00    +0.000 OA
ATOM      9  H   UNL     1       6.103  -0.001  -0.257  1.00  0.00    +0.000 HD
ENDBRANCH   7   8
ENDBRANCH   4   7
ENDBRANCH   1   4
BRANCH   1  10
ATOM     10  C   UNL     1       3.431  -1.683   1.399  1.00  0.00    +0.000 C 
BRANCH  10  11
ATOM     11  O   UNL     1       3.180  -0.545   2.225  1.00  0.00    +0.000 OA
ATOM     12  H   UNL     1       3.130  -0.747   3.169  1.00  0.00    +0.000 HD
ENDBRANCH  10  11
BRANCH  10  13
ATOM     13  C   UNL     1       2.336  -2.727   1.621  1.00  0.00    +0.000 C 
BRANCH  13  14
ATOM     14  O   UNL     1       2.652  -3.913   0.890  1.00  0.00    +0.000 OA
ATOM     15  H   UNL     1       3.513  -4.293   1.111  1.00  0.00    +0.000 HD
ENDBRANCH  13  14
BRANCH  13  16
ATOM     16  C   UNL     1       2.241  -3.058   3.112  1.00  0.00    +0.000 C 
BRANCH  16  17
ATOM     17  O   UNL     1       1.278  -2.201   3.730  1.00  0.00    +0.000 OA
ATOM     18  H   UNL     1       1.664  -1.498   4.269  1.00  0.00    +0.000 HD
ENDBRANCH  16  17
ENDBRANCH  13  16
ENDBRANCH  10  13
ENDBRANCH   1  10
TORSDOF 11
ENDMDL
