MODEL 1
REMARK VINA RESULT:    -5.457      0.000      0.000
REMARK INTER + INTRA:          -6.784
REMARK INTER:                  -6.574
REMARK INTRA:                  -0.210
REMARK UNBOUND:                -0.210
REMARK  Name = WEB
REMARK  6 active torsions:
REMARK  status: ('A' for Active; 'I' for Inactive)
REMARK    1  A    between atoms: C_1  and  O_2
REMARK    2  A    between atoms: C_1  and  C_3
REMARK    3  A    between atoms: C_3  and  O_4
REMARK    4  A    between atoms: C_5  and  O_6
REMARK    5  A    between atoms: C_7  and  O_8
REMARK    6  A    between atoms: C_9  and  O_10
REMARK                            x       y       z     vdW  Elec       q    Type
REMARK                         _______ _______ _______ _____ _____    ______ ____
ROOT
ATOM      1  C   UNL     1       4.521  -2.039   0.281  1.00  0.00    +0.000 C 
ATOM      2  C   UNL     1       3.222  -2.799  -0.003  1.00  0.00    +0.000 C 
ATOM      3  C   UNL     1       2.180  -2.427   1.056  1.00  0.00    +0.000 C 
ATOM      4  C   UNL     1       2.745  -2.739   2.445  1.00  0.00    +0.000 C 
ATOM      5  C   UNL     1       4.062  -1.981   2.634  1.00  0.00    +0.000 C 
ATOM      6  O   UNL     1       4.976  -2.351   1.599  1.00  0.00    +0.000 OA
ENDROOT
BRANCH   1   7
ATOM      7  O   UNL     1       4.282  -0.633   0.179  1.00  0.00    +0.000 OA
ATOM      8  H   UNL     1       3.925  -0.236   0.984  1.00  0.00    +0.000 HD
ENDBRANCH   1   7
BRANCH   2   9
ATOM      9  O   UNL     1       2.735  -2.444  -1.299  1.00  0.00    +0.000 OA
ATOM     10  H   UNL     1       2.390  -1.543  -1.355  1.00  0.00    +0.000 HD
ENDBRANCH   2   9
BRANCH   3  11
ATOM     11  O   UNL     1       1.882  -1.032   0.964  1.00  0.00    +0.000 OA
ATOM     12  H   UNL     1       1.436  -0.778   0.145  1.00  0.00    +0.000 HD
ENDBRANCH   3  11
BRANCH   4  13
ATOM     13  O   UNL     1       1.810  -2.328   3.445  1.00  0.00    +0.000 OA
ATOM     14  H   UNL     1       1.436  -1.449   3.297  1.00  0.00    +0.000 HD
ENDBRANCH   4  13
BRANCH   1  15
ATOM     15  C   UNL     1       5.585  -2.451  -0.737  1.00  0.00    +0.000 C 
BRANCH  15  16
ATOM     16  O   UNL     1       5.158  -3.631  -1.421  1.00  0.00    +0.000 OA
ATOM     17  H   UNL     1       5.718  -4.404  -1.259  1.00  0.00    +0.000 HD
ENDBRANCH  15  16
ENDBRANCH   1  15
TORSDOF 6
ENDMDL
MODEL 2
REMARK VINA RESULT:    -5.430      1.736      3.151
REMARK INTER + INTRA:          -6.751
REMARK INTER:                  -6.713
REMARK INTRA:                  -0.038
REMARK UNBOUND:                -0.210
REMARK  Name = WEB
REMARK  6 active torsions:
REMARK  status: ('A' for Active; 'I' for Inactive)
REMARK    1  A    between atoms: C_1  and  O_2
REMARK    2  A    between atoms: C_1  and  C_3
REMARK    3  A    between atoms: C_3  and  O_4
REMARK    4  A    between atoms: C_5  and  O_6
REMARK    5  A    between atoms: C_7  and  O_8
REMARK    6  A    between atoms: C_9  and  O_10
REMARK                            x       y       z     vdW  Elec       q    Type
REMARK                         _______ _______ _______ _____ _____    ______ ____
ROOT
ATOM      1  C   UNL     1       4.399  -1.552   2.659  1.00  0.00    +0.000 C 
ATOM      2  C   UNL     1       4.784  -2.119   1.289  1.00  0.00    +0.000 C 
ATOM      3  C   UNL     1       3.525  -2.237   0.423  1.00  0.00    +0.000 C 
ATOM      4  C   UNL     1       2.500  -3.113   1.149  1.00  0.00    +0.000 C 
ATOM      5  C   UNL     1       2.204  -2.509   2.524  1.00  0.00    +0.000 C 
ATOM      6  O   UNL     1       3.421  -2.398   3.266  1.00  0.00    +0.000 OA
ENDROOT
BRANCH   1   7
ATOM      7  O   UNL     1       3.860  -0.238   2.497  1.00  0.00    +0.000 OA
ATOM      8  H   UNL     1       2.954  -0.224   2.160  1.00  0.00    +0.000 HD
ENDBRANCH   1   7
BRANCH   2   9
ATOM      9  O   UNL     1       5.719  -1.244   0.656  1.00  0.00    +0.000 OA
ATOM     10  H   UNL     1       6.298  -1.684   0.018  1.00  0.00    +0.000 HD
ENDBRANCH   2   9
BRANCH   3  11
ATOM     11  O   UNL     1       2.973  -0.938   0.203  1.00  0.00    +0.000 OA
ATOM     12  H   UNL     1       3.625  -0.271  -0.050  1.00  0.00    +0.000 HD
ENDBRANCH   3  11
BRANCH   4  13
ATOM     13  O   UNL     1       1.294  -3.172   0.384  1.00  0.00    +0.000 OA
ATOM     14  H   UNL     1       0.744  -2.380   0.455  1.00  0.00    +0.000 HD
ENDBRANCH   4  13
BRANCH   1  15
ATOM     15  C   UNL     1       5.641  -1.487   3.549  1.00  0.00    +0.000 C 
BRANCH  15  16
ATOM     16  O   UNL     1       5.252  -1.605   4.919  1.00  0.00    +0.000 OA
ATOM     17  H   UNL     1       5.539  -0.868   5.476  1.00  0.00    +0.000 HD
ENDBRANCH  15  16
ENDBRANCH   1  15
TORSDOF 6
ENDMDL
MODEL 3
REMARK VINA RESULT:    -5.080      1.316      3.892
REMARK INTER + INTRA:          -6.330
REMARK INTER:                  -6.266
REMARK INTRA:                  -0.063
REMARK UNBOUND:                -0.210
REMARK  Name = WEB
REMARK  6 active torsions:
REMARK  status: ('A' for Active; 'I' for Inactive)
REMARK    1  A    between atoms: C_1  and  O_2
REMARK    2  A    between atoms: C_1  and  C_3
REMARK    3  A    between atoms: C_3  and  O_4
REMARK    4  A    between atoms: C_5  and  O_6
REMARK    5  A    between atoms: C_7  and  O_8
REMARK    6  A    between atoms: C_9  and  O_10
REMARK                            x       y       z     vdW  Elec       q    Type
REMARK                         _______ _______ _______ _____ _____    ______ ____
ROOT
ATOM      1  C   UNL     1       2.372  -2.130   1.905  1.00  0.00    +0.000 C 
ATOM      2  C   UNL     1       3.747  -1.485   2.097  1.00  0.00    +0.000 C 
ATOM      3  C   UNL     1       4.484  -1.465   0.754  1.00  0.00    +0.000 C 
ATOM      4  C   UNL     1       4.582  -2.896   0.216  1.00  0.00    +0.000 C 
ATOM      5  C   UNL     1       3.174  -3.486   0.098  1.00  0.00    +0.000 C 
ATOM      6  O   UNL     1       2.533  -3.447   1.375  1.00  0.00    +0.000 OA
ENDROOT
BRANCH   1   7
ATOM      7  O   UNL     1       1.598  -1.342   0.999  1.00  0.00    +0.000 OA
ATOM      8  H   UNL     1       2.056  -0.555   0.672  1.00  0.00    +0.000 HD
ENDBRANCH   1   7
BRANCH   2   9
ATOM      9  O   UNL     1       3.586  -0.148   2.573  1.00  0.00    +0.000 OA
ATOM     10  H   UNL     1       4.254   0.123   3.218  1.00  0.00    +0.000 HD
ENDBRANCH   2   9
BRANCH   3  11
ATOM     11  O   UNL     1       3.763  -0.654  -0.175  1.00  0.00    +0.000 OA
ATOM     12  H   UNL     1       3.916   0.295  -0.071  1.00  0.00    +0.000 HD
ENDBRANCH   3  11
BRANCH   4  13
ATOM     13  O   UNL     1       5.203  -2.882  -1.071  1.00  0.00    +0.000 OA
ATOM     14  H   UNL     1       4.963  -2.120  -1.616  1.00  0.00    +0.000 HD
ENDBRANCH   4  13
BRANCH   1  15
ATOM     15  C   UNL     1       1.654  -2.208   3.254  1.00  0.00    +0.000 C 
BRANCH  15  16
ATOM     16  O   UNL     1       2.341  -3.126   4.106  1.00  0.00    +0.000 OA
ATOM     17  H   UNL     1       1.776  -3.543   4.773  1.00  0.00    +0.000 HD
ENDBRANCH  15  16
ENDBRANCH   1  15
TORSDOF 6
ENDMDL
MODEL 4
REMARK VINA RESULT:    -4.917     12.362     13.705
REMARK INTER + INTRA:          -6.134
REMARK INTER:                  -5.899
REMARK INTRA:                  -0.235
REMARK UNBOUND:                -0.210
REMARK  Name = WEB
REMARK  6 active torsions:
REMARK  status: ('A' for Active; 'I' for Inactive)
REMARK    1  A    between atoms: C_1  and  O_2
REMARK    2  A    between atoms: C_1  and  C_3
REMARK    3  A    between atoms: C_3  and  O_4
REMARK    4  A    between atoms: C_5  and  O_6
REMARK    5  A    between atoms: C_7  and  O_8
REMARK    6  A    between atoms: C_9  and  O_10
REMARK                            x       y       z     vdW  Elec       q    Type
REMARK                         _______ _______ _______ _____ _____    ______ ____
ROOT
ATOM      1  C   UNL     1      -8.139  -9.413  -0.261  1.00  0.00    +0.000 C 
ATOM      2  C   UNL     1      -7.492  -8.185   0.386  1.00  0.00    +0.000 C 
ATOM      3  C   UNL     1      -7.670  -8.267   1.906  1.00  0.00    +0.000 C 
ATOM      4  C   UNL     1      -9.163  -8.378   2.230  1.00  0.00    +0.000 C 
ATOM      5  C   UNL     1      -9.745  -9.597   1.510  1.00  0.00    +0.000 C 
ATOM      6  O   UNL     1      -9.519  -9.473   0.104  1.00  0.00    +0.000 OA
ENDROOT
BRANCH   1   7
ATOM      7  O   UNL     1      -7.474 -10.595   0.190  1.00  0.00    +0.000 OA
ATOM      8  H   UNL     1      -6.532 -10.471   0.371  1.00  0.00    +0.000 HD
ENDBRANCH   1   7
BRANCH   2   9
ATOM      9  O   UNL     1      -6.100  -8.155   0.070  1.00  0.00    +0.000 OA
ATOM     10  H   UNL     1      -5.552  -7.730   0.744  1.00  0.00    +0.000 HD
ENDBRANCH   2   9
BRANCH   3  11
ATOM     11  O   UNL     1      -6.987  -9.418   2.406  1.00  0.00    +0.000 OA
ATOM     12  H   UNL     1      -6.482  -9.255   3.214  1.00  0.00    +0.000 HD
ENDBRANCH   3  11
BRANCH   4  13
ATOM     13  O   UNL     1      -9.337  -8.527   3.640  1.00  0.00    +0.000 OA
ATOM     14  H   UNL     1     -10.111  -8.067   3.992  1.00  0.00    +0.000 HD
ENDBRANCH   4  13
BRANCH   1  15
ATOM     15  C   UNL     1      -8.017  -9.309  -1.782  1.00  0.00    +0.000 C 
BRANCH  15  16
ATOM     16  O   UNL     1      -6.730  -9.777  -2.190  1.00  0.00    +0.000 OA
ATOM     17  H   UNL     1      -6.536  -9.629  -3.127  1.00  0.00    +0.000 HD
ENDBRANCH  15  16
ENDBRANCH   1  15
TORSDOF 6
ENDMDL
MODEL 5
REMARK VINA RESULT:    -4.804      1.483      3.619
REMARK INTER + INTRA:          -5.998
REMARK INTER:                  -5.954
REMARK INTRA:                  -0.044
REMARK UNBOUND:                -0.210
REMARK  Name = WEB
REMARK  6 active torsions:
REMARK  status: ('A' for Active; 'I' for Inactive)
REMARK    1  A    between atoms: C_1  and  O_2
REMARK    2  A    between atoms: C_1  and  C_3
REMARK    3  A    between atoms: C_3  and  O_4
REMARK    4  A    between atoms: C_5  and  O_6
REMARK    5  A    between atoms: C_7  and  O_8
REMARK    6  A    between atoms: C_9  and  O_10
REMARK                            x       y       z     vdW  Elec       q    Type
REMARK                         _______ _______ _______ _____ _____    ______ ____
ROOT
ATOM      1  C   UNL     1       2.800  -2.160   1.070  1.00  0.00    +0.000 C 
ATOM      2  C   UNL     1       3.048  -1.405  -0.239  1.00  0.00    +0.000 C 
ATOM      3  C   UNL     1       4.507  -1.605  -0.664  1.00  0.00    +0.000 C 
ATOM      4  C   UNL     1       5.426  -1.129   0.465  1.00  0.00    +0.000 C 
ATOM      5  C   UNL     1       5.084  -1.894   1.748  1.00  0.00    +0.000 C 
ATOM      6  O   UNL     1       3.707  -1.691   2.069  1.00  0.00    +0.000 OA
ENDROOT
BRANCH   1   7
ATOM      7  O   UNL     1       3.002  -3.559   0.860  1.00  0.00    +0.000 OA
ATOM      8  H   UNL     1       2.777  -3.859  -0.031  1.00  0.00    +0.000 HD
ENDBRANCH   1   7
BRANCH   2   9
ATOM      9  O   UNL     1       2.182  -1.913  -1.256  1.00  0.00    +0.000 OA
ATOM     10  H   UNL     1       2.290  -2.858  -1.428  1.00  0.00    +0.000 HD
ENDBRANCH   2   9
BRANCH   3  11
ATOM     11  O   UNL     1       4.745  -2.990  -0.922  1.00  0.00    +0.000 OA
ATOM     12  H   UNL     1       5.245  -3.159  -1.732  1.00  0.00    +0.000 HD
ENDBRANCH   3  11
BRANCH   4  13
ATOM     13  O   UNL     1       6.788  -1.377   0.111  1.00  0.00    +0.000 OA
ATOM     14  H   UNL     1       6.919  -2.180  -0.412  1.00  0.00    +0.000 HD
ENDBRANCH   4  13
BRANCH   1  15
ATOM     15  C   UNL     1       1.361  -1.916   1.531  1.00  0.00    +0.000 C 
BRANCH  15  16
ATOM     16  O   UNL     1       1.372  -1.146   2.734  1.00  0.00    +0.000 OA
ATOM     17  H   UNL     1       0.539  -1.174   3.228  1.00  0.00    +0.000 HD
ENDBRANCH  15  16
ENDBRANCH   1  15
TORSDOF 6
ENDMDL
MODEL 6
REMARK VINA RESULT:    -4.522      9.263     10.495
REMARK INTER + INTRA:          -5.657
REMARK INTER:                  -5.615
REMARK INTRA:                  -0.042
REMARK UNBOUND:                -0.210
REMARK  Name = WEB
REMARK  6 active torsions:
REMARK  status: ('A' for Active; 'I' for Inactive)
REMARK    1  A    between atoms: C_1  and  O_2
REMARK    2  A    between atoms: C_1  and  C_3
REMARK    3  A    between atoms: C_3  and  O_4
REMARK    4  A    between atoms: C_5  and  O_6
REMARK    5  A    between atoms: C_7  and  O_8
REMARK    6  A    between atoms: C_9  and  O_10
REMARK                            x       y       z     vdW  Elec       q    Type
REMARK                         _______ _______ _______ _____ _____    ______ ____
ROOT
ATOM      1  C   UNL     1      12.685  -0.409   3.604  1.00  0.00    +0.000 C 
ATOM      2  C   UNL     1      12.726   0.978   4.253  1.00  0.00    +0.000 C 
ATOM      3  C   UNL     1      12.904   2.037   3.160  1.00  0.00    +0.000 C 
ATOM      4  C   UNL     1      14.177   1.729   2.367  1.00  0.00    +0.000 C 
ATOM      5  C   UNL     1      14.081   0.312   1.793  1.00  0.00    +0.000 C 
ATOM      6  O   UNL     1      13.885  -0.620   2.857  1.00  0.00    +0.000 OA
ENDROOT
BRANCH   1   7
ATOM      7  O   UNL     1      11.558  -0.494   2.730  1.00  0.00    +0.000 OA
ATOM      8  H   UNL     1      11.214  -1.390   2.619  1.00  0.00    +0.000 HD
ENDBRANCH   1   7
BRANCH   2   9
ATOM      9  O   UNL     1      11.502   1.214   4.952  1.00  0.00    +0.000 OA
ATOM     10  H   UNL     1      11.597   1.231   5.914  1.00  0.00    +0.000 HD
ENDBRANCH   2   9
BRANCH   3  11
ATOM     11  O   UNL     1      11.777   2.014   2.282  1.00  0.00    +0.000 OA
ATOM     12  H   UNL     1      10.931   2.172   2.723  1.00  0.00    +0.000 HD
ENDBRANCH   3  11
BRANCH   4  13
ATOM     13  O   UNL     1      14.316   2.668   1.300  1.00  0.00    +0.000 OA
ATOM     14  H   UNL     1      15.083   2.510   0.733  1.00  0.00    +0.000 HD
ENDBRANCH   4  13
BRANCH   1  15
ATOM     15  C   UNL     1      12.567  -1.477   4.693  1.00  0.00    +0.000 C 
BRANCH  15  16
ATOM     16  O   UNL     1      11.583  -2.439   4.312  1.00  0.00    +0.000 OA
ATOM     17  H   UNL     1      10.708  -2.281   4.694  1.00  0.00    +0.000 HD
ENDBRANCH  15  16
ENDBRANCH   1  15
TORSDOF 6
ENDMDL
MODEL 7
REMARK VINA RESULT:    -4.362      9.451     10.652
REMARK INTER + INTRA:          -5.464
REMARK INTER:                  -5.213
REMARK INTRA:                  -0.252
REMARK UNBOUND:                -0.210
REMARK  Name = WEB
REMARK  6 active torsions:
REMARK  status: ('A' for Active; 'I' for Inactive)
REMARK    1  A    between atoms: C_1  and  O_2
REMARK    2  A    between atoms: C_1  and  C_3
REMARK    3  A    between atoms: C_3  and  O_4
REMARK    4  A    between atoms: C_5  and  O_6
REMARK    5  A    between atoms: C_7  and  O_8
REMARK    6  A    between atoms: C_9  and  O_10
REMARK                            x       y       z     vdW  Elec       q    Type
REMARK                         _______ _______ _______ _____ _____    ______ ____
ROOT
ATOM      1  C   UNL     1      13.814   1.618   2.796  1.00  0.00    +0.000 C 
ATOM      2  C   UNL     1      13.857   0.098   2.623  1.00  0.00    +0.000 C 
ATOM      3  C   UNL     1      12.747  -0.536   3.468  1.00  0.00    +0.000 C 
ATOM      4  C   UNL     1      12.927  -0.111   4.929  1.00  0.00    +0.000 C 
ATOM      5  C   UNL     1      12.921   1.418   5.012  1.00  0.00    +0.000 C 
ATOM      6  O   UNL     1      13.956   1.944   4.180  1.00  0.00    +0.000 OA
ENDROOT
BRANCH   1   7
ATOM      7  O   UNL     1      12.564   2.118   2.314  1.00  0.00    +0.000 OA
ATOM      8  H   UNL     1      12.650   2.822   1.658  1.00  0.00    +0.000 HD
ENDBRANCH   1   7
BRANCH   2   9
ATOM      9  O   UNL     1      13.657  -0.233   1.247  1.00  0.00    +0.000 OA
ATOM     10  H   UNL     1      12.966   0.287   0.815  1.00  0.00    +0.000 HD
ENDBRANCH   2   9
BRANCH   3  11
ATOM     11  O   UNL     1      11.474  -0.092   2.995  1.00  0.00    +0.000 OA
ATOM     12  H   UNL     1      11.371  -0.143   2.035  1.00  0.00    +0.000 HD
ENDBRANCH   3  11
BRANCH   4  13
ATOM     13  O   UNL     1      11.856  -0.636   5.715  1.00  0.00    +0.000 OA
ATOM     14  H   UNL     1      11.649  -1.563   5.531  1.00  0.00    +0.000 HD
ENDBRANCH   4  13
BRANCH   1  15
ATOM     15  C   UNL     1      14.957   2.253   2.002  1.00  0.00    +0.000 C 
BRANCH  15  16
ATOM     16  O   UNL     1      16.021   1.310   1.862  1.00  0.00    +0.000 OA
ATOM     17  H   UNL     1      16.425   1.044   2.701  1.00  0.00    +0.000 HD
ENDBRANCH  15  16
ENDBRANCH   1  15
TORSDOF 6
ENDMDL
MODEL 8
REMARK VINA RESULT:    -4.344     13.257     14.534
REMARK INTER + INTRA:          -5.443
REMARK INTER:                  -5.207
REMARK INTRA:                  -0.236
REMARK UNBOUND:                -0.210
REMARK  Name = WEB
REMARK  6 active torsions:
REMARK  status: ('A' for Active; 'I' for Inactive)
REMARK    1  A    between atoms: C_1  and  O_2
REMARK    2  A    between atoms: C_1  and  C_3
REMARK    3  A    between atoms: C_3  and  O_4
REMARK    4  A    between atoms: C_5  and  O_6
REMARK    5  A    between atoms: C_7  and  O_8
REMARK    6  A    between atoms: C_9  and  O_10
REMARK                            x       y       z     vdW  Elec       q    Type
REMARK                         _______ _______ _______ _____ _____    ______ ____
ROOT
ATOM      1  C   UNL     1      -8.456 -10.599   0.534  1.00  0.00    +0.000 C 
ATOM      2  C   UNL     1      -8.098 -10.579  -0.955  1.00  0.00    +0.000 C 
ATOM      3  C   UNL     1      -8.077  -9.128  -1.446  1.00  0.00    +0.000 C 
ATOM      4  C   UNL     1      -9.438  -8.485  -1.166  1.00  0.00    +0.000 C 
ATOM      5  C   UNL     1      -9.745  -8.587   0.331  1.00  0.00    +0.000 C 
ATOM      6  O   UNL     1      -9.719  -9.960   0.729  1.00  0.00    +0.000 OA
ENDROOT
BRANCH   1   7
ATOM      7  O   UNL     1      -7.450  -9.906   1.276  1.00  0.00    +0.000 OA
ATOM      8  H   UNL     1      -6.853  -9.377   0.729  1.00  0.00    +0.000 HD
ENDBRANCH   1   7
BRANCH   2   9
ATOM      9  O   UNL     1      -6.810 -11.166  -1.145  1.00  0.00    +0.000 OA
ATOM     10  H   UNL     1      -6.669 -11.976  -0.636  1.00  0.00    +0.000 HD
ENDBRANCH   2   9
BRANCH   3  11
ATOM     11  O   UNL     1      -7.056  -8.404  -0.756  1.00  0.00    +0.000 OA
ATOM     12  H   UNL     1      -6.231  -8.318  -1.252  1.00  0.00    +0.000 HD
ENDBRANCH   3  11
BRANCH   4  13
ATOM     13  O   UNL     1      -9.407  -7.110  -1.554  1.00  0.00    +0.000 OA
ATOM     14  H   UNL     1      -9.390  -6.491  -0.811  1.00  0.00    +0.000 HD
ENDBRANCH   4  13
BRANCH   1  15
ATOM     15  C   UNL     1      -8.538 -12.048   1.018  1.00  0.00    +0.000 C 
BRANCH  15  16
ATOM     16  O   UNL     1      -7.267 -12.451   1.532  1.00  0.00    +0.000 OA
ATOM     17  H   UNL     1      -6.718 -11.717   1.845  1.00  0.00    +0.000 HD
ENDBRANCH  15  16
ENDBRANCH   1  15
TORSDOF 6
ENDMDL
