MODEL 1
REMARK VINA RESULT:    -6.038      0.000      0.000
REMARK INTER + INTRA:          -7.525
REMARK INTER:                  -7.273
REMARK INTRA:                  -0.252
REMARK UNBOUND:                -0.252
REMARK  Name = GAL
REMARK  6 active torsions:
REMARK  status: ('A' for Active; 'I' for Inactive)
REMARK    1  A    between atoms: C_1  and  O_7
REMARK    2  A    between atoms: C_2  and  O_8
REMARK    3  A    between atoms: C_3  and  O_9
REMARK    4  A    between atoms: C_4  and  O_10
REMARK    5  A    between atoms: C_5  and  C_6
REMARK    6  A    between atoms: C_6  and  O_12
REMARK                            x       y       z     vdW  Elec       q    Type
REMARK                         _______ _______ _______ _____ _____    ______ ____
ROOT
ATOM      1  C   UNL     1       3.837  -1.308   2.171  1.00  0.00    +0.000 C 
ATOM      2  C   UNL     1       2.388  -1.515   1.724  1.00  0.00    +0.000 C 
ATOM      3  C   UNL     1       2.273  -2.855   0.992  1.00  0.00    +0.000 C 
ATOM      4  C   UNL     1       3.251  -2.865  -0.187  1.00  0.00    +0.000 C 
ATOM      5  C   UNL     1       4.668  -2.606   0.333  1.00  0.00    +0.000 C 
ATOM      6  O   UNL     1       4.697  -1.359   1.030  1.00  0.00    +0.000 OA
ENDROOT
BRANCH   1   7
ATOM      7  O   UNL     1       3.963  -0.033   2.805  1.00  0.00    +0.000 OA
ATOM      8  H   UNL     1       3.754  -0.042   3.749  1.00  0.00    +0.000 HD
ENDBRANCH   1   7
BRANCH   2   9
ATOM      9  O   UNL     1       1.532  -1.521   2.869  1.00  0.00    +0.000 OA
ATOM     10  H   UNL     1       0.595  -1.642   2.660  1.00  0.00    +0.000 HD
ENDBRANCH   2   9
BRANCH   3  11
ATOM     11  O   UNL     1       0.939  -3.023   0.508  1.00  0.00    +0.000 OA
ATOM     12  H   UNL     1       0.278  -3.134   1.206  1.00  0.00    +0.000 HD
ENDBRANCH   3  11
BRANCH   4  13
ATOM     13  O   UNL     1       2.889  -1.843  -1.116  1.00  0.00    +0.000 OA
ATOM     14  H   UNL     1       3.481  -1.778  -1.879  1.00  0.00    +0.000 HD
ENDBRANCH   4  13
BRANCH   5  15
ATOM     15  C   UNL     1       5.642  -2.556  -0.845  1.00  0.00    +0.000 C 
BRANCH  15  16
ATOM     16  O   UNL     1       5.247  -3.513  -1.831  1.00  0.00    +0.000 OA
ATOM     17  H   UNL     1       4.761  -4.268  -1.473  1.00  0.00    +0.000 HD
ENDBRANCH  15  16
ENDBRANCH   5  15
TORSDOF 6
ENDMDL
MODEL 2
REMARK VINA RESULT:    -5.815      1.495      4.262
REMARK INTER + INTRA:          -7.257
REMARK INTER:                  -7.092
REMARK INTRA:                  -0.165
REMARK UNBOUND:                -0.252
REMARK  Name = GAL
REMARK  6 active torsions:
REMARK  status: ('A' for Active; 'I' for Inactive)
REMARK    1  A    between atoms: C_1  and  O_7
REMARK    2  A    between atoms: C_2  and  O_8
REMARK    3  A    between atoms: C_3  and  O_9
REMARK    4  A    between atoms: C_4  and  O_10
REMARK    5  A    between atoms: C_5  and  C_6
REMARK    6  A    between atoms: C_6  and  O_12
REMARK                            x       y       z     vdW  Elec       q    Type
REMARK                         _______ _______ _______ _____ _____    ______ ____
ROOT
ATOM      1  C   UNL     1       2.758  -1.631  -0.301  1.00  0.00    +0.000 C 
ATOM      2  C   UNL     1       4.216  -1.250  -0.033  1.00  0.00    +0.000 C 
ATOM      3  C   UNL     1       4.791  -2.180   1.038  1.00  0.00    +0.000 C 
ATOM      4  C   UNL     1       3.926  -2.086   2.298  1.00  0.00    +0.000 C 
ATOM      5  C   UNL     1       2.478  -2.436   1.941  1.00  0.00    +0.000 C 
ATOM      6  O   UNL     1       2.015  -1.553   0.917  1.00  0.00    +0.000 OA
ENDROOT
BRANCH   1   7
ATOM      7  O   UNL     1       2.198  -0.731  -1.260  1.00  0.00    +0.000 OA
ATOM      8  H   UNL     1       1.931  -1.154  -2.087  1.00  0.00    +0.000 HD
ENDBRANCH   1   7
BRANCH   2   9
ATOM      9  O   UNL     1       4.973  -1.382  -1.238  1.00  0.00    +0.000 OA
ATOM     10  H   UNL     1       5.583  -2.133  -1.240  1.00  0.00    +0.000 HD
ENDBRANCH   2   9
BRANCH   3  11
ATOM     11  O   UNL     1       6.130  -1.784   1.348  1.00  0.00    +0.000 OA
ATOM     12  H   UNL     1       6.241  -0.830   1.459  1.00  0.00    +0.000 HD
ENDBRANCH   3  11
BRANCH   4  13
ATOM     13  O   UNL     1       3.981  -0.757   2.818  1.00  0.00    +0.000 OA
ATOM     14  H   UNL     1       3.811  -0.069   2.158  1.00  0.00    +0.000 HD
ENDBRANCH   4  13
BRANCH   5  15
ATOM     15  C   UNL     1       1.596  -2.286   3.182  1.00  0.00    +0.000 C 
BRANCH  15  16
ATOM     16  O   UNL     1       2.162  -3.033   4.261  1.00  0.00    +0.000 OA
ATOM     17  H   UNL     1       2.102  -3.992   4.149  1.00  0.00    +0.000 HD
ENDBRANCH  15  16
ENDBRANCH   5  15
TORSDOF 6
ENDMDL
MODEL 3
REMARK VINA RESULT:    -5.014      1.477      3.617
REMARK INTER + INTRA:          -6.292
REMARK INTER:                  -6.109
REMARK INTRA:                  -0.183
REMARK UNBOUND:                -0.252
REMARK  Name = GAL
REMARK  6 active torsions:
REMARK  status: ('A' for Active; 'I' for Inactive)
REMARK    1  A    between atoms: C_1  and  O_7
REMARK    2  A    between atoms: C_2  and  O_8
REMARK    3  A    between atoms: C_3  and  O_9
REMARK    4  A    between atoms: C_4  and  O_10
REMARK    5  A    between atoms: C_5  and  C_6
REMARK    6  A    between atoms: C_6  and  O_12
REMARK                            x       y       z     vdW  Elec       q    Type
REMARK                         _______ _______ _______ _____ _____    ______ ____
ROOT
ATOM      1  C   UNL     1       4.602  -1.376   1.600  1.00  0.00    +0.000 C 
ATOM      2  C   UNL     1       4.327  -1.936   0.202  1.00  0.00    +0.000 C 
ATOM      3  C   UNL     1       2.884  -1.612  -0.195  1.00  0.00    +0.000 C 
ATOM      4  C   UNL     1       1.935  -2.189   0.859  1.00  0.00    +0.000 C 
ATOM      5  C   UNL     1       2.301  -1.620   2.232  1.00  0.00    +0.000 C 
ATOM      6  O   UNL     1       3.665  -1.930   2.526  1.00  0.00    +0.000 OA
ENDROOT
BRANCH   1   7
ATOM      7  O   UNL     1       5.930  -1.724   2.000  1.00  0.00    +0.000 OA
ATOM      8  H   UNL     1       5.971  -2.246   2.813  1.00  0.00    +0.000 HD
ENDBRANCH   1   7
BRANCH   2   9
ATOM      9  O   UNL     1       5.226  -1.340  -0.736  1.00  0.00    +0.000 OA
ATOM     10  H   UNL     1       5.020  -1.538  -1.660  1.00  0.00    +0.000 HD
ENDBRANCH   2   9
BRANCH   3  11
ATOM     11  O   UNL     1       2.595  -2.194  -1.468  1.00  0.00    +0.000 OA
ATOM     12  H   UNL     1       1.990  -2.946  -1.428  1.00  0.00    +0.000 HD
ENDBRANCH   3  11
BRANCH   4  13
ATOM     13  O   UNL     1       2.057  -3.612   0.884  1.00  0.00    +0.000 OA
ATOM     14  H   UNL     1       1.620  -4.031   1.638  1.00  0.00    +0.000 HD
ENDBRANCH   4  13
BRANCH   5  15
ATOM     15  C   UNL     1       1.396  -2.238   3.299  1.00  0.00    +0.000 C 
BRANCH  15  16
ATOM     16  O   UNL     1       2.155  -3.149   4.098  1.00  0.00    +0.000 OA
ATOM     17  H   UNL     1       2.154  -4.057   3.766  1.00  0.00    +0.000 HD
ENDBRANCH  15  16
ENDBRANCH   5  15
TORSDOF 6
ENDMDL
MODEL 4
REMARK VINA RESULT:    -4.837      1.363      3.573
REMARK INTER + INTRA:          -6.079
REMARK INTER:                  -5.839
REMARK INTRA:                  -0.240
REMARK UNBOUND:                -0.252
REMARK  Name = GAL
REMARK  6 active torsions:
REMARK  status: ('A' for Active; 'I' for Inactive)
REMARK    1  A    between atoms: C_1  and  O_7
REMARK    2  A    between atoms: C_2  and  O_8
REMARK    3  A    between atoms: C_3  and  O_9
REMARK    4  A    between atoms: C_4  and  O_10
REMARK    5  A    between atoms: C_5  and  C_6
REMARK    6  A    between atoms: C_6  and  O_12
REMARK                            x       y       z     vdW  Elec       q    Type
REMARK                         _______ _______ _______ _____ _____    ______ ____
ROOT
ATOM      1  C   UNL     1       4.516  -2.265  -0.299  1.00  0.00    +0.000 C 
ATOM      2  C   UNL     1       3.016  -2.337  -0.002  1.00  0.00    +0.000 C 
ATOM      3  C   UNL     1       2.656  -1.272   1.037  1.00  0.00    +0.000 C 
ATOM      4  C   UNL     1       3.507  -1.491   2.291  1.00  0.00    +0.000 C 
ATOM      5  C   UNL     1       4.989  -1.451   1.908  1.00  0.00    +0.000 C 
ATOM      6  O   UNL     1       5.249  -2.445   0.914  1.00  0.00    +0.000 OA
ENDROOT
BRANCH   1   7
ATOM      7  O   UNL     1       4.869  -3.293  -1.227  1.00  0.00    +0.000 OA
ATOM      8  H   UNL     1       5.017  -2.975  -2.127  1.00  0.00    +0.000 HD
ENDBRANCH   1   7
BRANCH   2   9
ATOM      9  O   UNL     1       2.280  -2.100  -1.204  1.00  0.00    +0.000 OA
ATOM     10  H   UNL     1       2.026  -1.177  -1.335  1.00  0.00    +0.000 HD
ENDBRANCH   2   9
BRANCH   3  11
ATOM     11  O   UNL     1       1.271  -1.381   1.375  1.00  0.00    +0.000 OA
ATOM     12  H   UNL     1       0.966  -2.291   1.492  1.00  0.00    +0.000 HD
ENDBRANCH   3  11
BRANCH   4  13
ATOM     13  O   UNL     1       3.197  -2.763   2.863  1.00  0.00    +0.000 OA
ATOM     14  H   UNL     1       3.583  -3.512   2.388  1.00  0.00    +0.000 HD
ENDBRANCH   4  13
BRANCH   5  15
ATOM     15  C   UNL     1       5.845  -1.728   3.144  1.00  0.00    +0.000 C 
BRANCH  15  16
ATOM     16  O   UNL     1       5.297  -1.034   4.267  1.00  0.00    +0.000 OA
ATOM     17  H   UNL     1       5.944  -0.832   4.958  1.00  0.00    +0.000 HD
ENDBRANCH  15  16
ENDBRANCH   5  15
TORSDOF 6
ENDMDL
MODEL 5
REMARK VINA RESULT:    -4.694      1.443      3.386
REMARK INTER + INTRA:          -5.907
REMARK INTER:                  -5.877
REMARK INTRA:                  -0.030
REMARK UNBOUND:                -0.252
REMARK  Name = GAL
REMARK  6 active torsions:
REMARK  status: ('A' for Active; 'I' for Inactive)
REMARK    1  A    between atoms: C_1  and  O_7
REMARK    2  A    between atoms: C_2  and  O_8
REMARK    3  A    between atoms: C_3  and  O_9
REMARK    4  A    between atoms: C_4  and  O_10
REMARK    5  A    between atoms: C_5  and  C_6
REMARK    6  A    between atoms: C_6  and  O_12
REMARK                            x       y       z     vdW  Elec       q    Type
REMARK                         _______ _______ _______ _____ _____    ______ ____
ROOT
ATOM      1  C   UNL     1       2.278  -1.774   1.895  1.00  0.00    +0.000 C 
ATOM      2  C   UNL     1       2.679  -1.866   0.420  1.00  0.00    +0.000 C 
ATOM      3  C   UNL     1       3.953  -2.706   0.296  1.00  0.00    +0.000 C 
ATOM      4  C   UNL     1       5.051  -2.077   1.158  1.00  0.00    +0.000 C 
ATOM      5  C   UNL     1       4.561  -1.977   2.605  1.00  0.00    +0.000 C 
ATOM      6  O   UNL     1       3.355  -1.210   2.646  1.00  0.00    +0.000 OA
ENDROOT
BRANCH   1   7
ATOM      7  O   UNL     1       1.121  -0.945   2.025  1.00  0.00    +0.000 OA
ATOM      8  H   UNL     1       0.971  -0.360   1.270  1.00  0.00    +0.000 HD
ENDBRANCH   1   7
BRANCH   2   9
ATOM      9  O   UNL     1       1.625  -2.482  -0.323  1.00  0.00    +0.000 OA
ATOM     10  H   UNL     1       1.813  -3.392  -0.592  1.00  0.00    +0.000 HD
ENDBRANCH   2   9
BRANCH   3  11
ATOM     11  O   UNL     1       4.375  -2.736  -1.069  1.00  0.00    +0.000 OA
ATOM     12  H   UNL     1       3.906  -2.111  -1.639  1.00  0.00    +0.000 HD
ENDBRANCH   3  11
BRANCH   4  13
ATOM     13  O   UNL     1       5.356  -0.771   0.666  1.00  0.00    +0.000 OA
ATOM     14  H   UNL     1       4.838  -0.512  -0.109  1.00  0.00    +0.000 HD
ENDBRANCH   4  13
BRANCH   5  15
ATOM     15  C   UNL     1       5.629  -1.295   3.461  1.00  0.00    +0.000 C 
BRANCH  15  16
ATOM     16  O   UNL     1       5.370  -1.555   4.842  1.00  0.00    +0.000 OA
ATOM     17  H   UNL     1       5.773  -2.370   5.171  1.00  0.00    +0.000 HD
ENDBRANCH  15  16
ENDBRANCH   5  15
TORSDOF 6
ENDMDL
MODEL 6
REMARK VINA RESULT:    -4.661      0.926      2.701
REMARK INTER + INTRA:          -5.867
REMARK INTER:                  -5.623
REMARK INTRA:                  -0.244
REMARK UNBOUND:                -0.252
REMARK  Name = GAL
REMARK  6 active torsions:
REMARK  status: ('A' for Active; 'I' for Inactive)
REMARK    1  A    between atoms: C_1  and  O_7
REMARK    2  A    between atoms: C_2  and  O_8
REMARK    3  A    between atoms: C_3  and  O_9
REMARK    4  A    between atoms: C_4  and  O_10
REMARK    5  A    between atoms: C_5  and  C_6
REMARK    6  A    between atoms: C_6  and  O_12
REMARK                            x       y       z     vdW  Elec       q    Type
REMARK                         _______ _______ _______ _____ _____    ______ ____
ROOT
ATOM      1  C   UNL     1       1.952  -2.029   0.430  1.00  0.00    +0.000 C 
ATOM      2  C   UNL     1       2.486  -1.777   1.842  1.00  0.00    +0.000 C 
ATOM      3  C   UNL     1       3.686  -0.830   1.765  1.00  0.00    +0.000 C 
ATOM      4  C   UNL     1       4.746  -1.441   0.844  1.00  0.00    +0.000 C 
ATOM      5  C   UNL     1       4.126  -1.706  -0.531  1.00  0.00    +0.000 C 
ATOM      6  O   UNL     1       2.996  -2.568  -0.383  1.00  0.00    +0.000 OA
ENDROOT
BRANCH   1   7
ATOM      7  O   UNL     1       0.866  -2.957   0.489  1.00  0.00    +0.000 OA
ATOM      8  H   UNL     1       1.132  -3.858   0.717  1.00  0.00    +0.000 HD
ENDBRANCH   1   7
BRANCH   2   9
ATOM      9  O   UNL     1       1.460  -1.185   2.642  1.00  0.00    +0.000 OA
ATOM     10  H   UNL     1       1.616  -1.250   3.594  1.00  0.00    +0.000 HD
ENDBRANCH   2   9
BRANCH   3  11
ATOM     11  O   UNL     1       4.237  -0.647   3.072  1.00  0.00    +0.000 OA
ATOM     12  H   UNL     1       4.695  -1.426   3.417  1.00  0.00    +0.000 HD
ENDBRANCH   3  11
BRANCH   4  13
ATOM     13  O   UNL     1       5.212  -2.671   1.402  1.00  0.00    +0.000 OA
ATOM     14  H   UNL     1       5.541  -3.301   0.745  1.00  0.00    +0.000 HD
ENDBRANCH   4  13
BRANCH   5  15
ATOM     15  C   UNL     1       5.161  -2.372  -1.438  1.00  0.00    +0.000 C 
BRANCH  15  16
ATOM     16  O   UNL     1       4.933  -3.782  -1.466  1.00  0.00    +0.000 OA
ATOM     17  H   UNL     1       4.000  -4.028  -1.525  1.00  0.00    +0.000 HD
ENDBRANCH  15  16
ENDBRANCH   5  15
TORSDOF 6
ENDMDL
MODEL 7
REMARK VINA RESULT:    -4.460      9.693     11.063
REMARK INTER + INTRA:          -5.625
REMARK INTER:                  -5.594
REMARK INTRA:                  -0.031
REMARK UNBOUND:                -0.252
REMARK  Name = GAL
REMARK  6 active torsions:
REMARK  status: ('A' for Active; 'I' for Inactive)
REMARK    1  A    between atoms: C_1  and  O_7
REMARK    2  A    between atoms: C_2  and  O_8
REMARK    3  A    between atoms: C_3  and  O_9
REMARK    4  A    between atoms: C_4  and  O_10
REMARK    5  A    between atoms: C_5  and  C_6
REMARK    6  A    between atoms: C_6  and  O_12
REMARK                            x       y       z     vdW  Elec       q    Type
REMARK                         _______ _______ _______ _____ _____    ______ ____
ROOT
ATOM      1  C   UNL     1      13.435   0.188   2.538  1.00  0.00    +0.000 C 
ATOM      2  C   UNL     1      12.216   0.891   3.142  1.00  0.00    +0.000 C 
ATOM      3  C   UNL     1      12.595   1.471   4.508  1.00  0.00    +0.000 C 
ATOM      4  C   UNL     1      13.117   0.343   5.402  1.00  0.00    +0.000 C 
ATOM      5  C   UNL     1      14.302  -0.339   4.712  1.00  0.00    +0.000 C 
ATOM      6  O   UNL     1      13.889  -0.828   3.434  1.00  0.00    +0.000 OA
ENDROOT
BRANCH   1   7
ATOM      7  O   UNL     1      13.073  -0.404   1.289  1.00  0.00    +0.000 OA
ATOM      8  H   UNL     1      12.635   0.204   0.678  1.00  0.00    +0.000 HD
ENDBRANCH   1   7
BRANCH   2   9
ATOM      9  O   UNL     1      11.795   1.946   2.275  1.00  0.00    +0.000 OA
ATOM     10  H   UNL     1      12.440   2.177   1.593  1.00  0.00    +0.000 HD
ENDBRANCH   2   9
BRANCH   3  11
ATOM     11  O   UNL     1      11.444   2.065   5.112  1.00  0.00    +0.000 OA
ATOM     12  H   UNL     1      11.270   2.971   4.819  1.00  0.00    +0.000 HD
ENDBRANCH   3  11
BRANCH   4  13
ATOM     13  O   UNL     1      12.079  -0.613   5.622  1.00  0.00    +0.000 OA
ATOM     14  H   UNL     1      12.346  -1.367   6.166  1.00  0.00    +0.000 HD
ENDBRANCH   4  13
BRANCH   5  15
ATOM     15  C   UNL     1      14.791  -1.505   5.572  1.00  0.00    +0.000 C 
BRANCH  15  16
ATOM     16  O   UNL     1      16.069  -1.941   5.101  1.00  0.00    +0.000 OA
ATOM     17  H   UNL     1      16.816  -1.546   5.571  1.00  0.00    +0.000 HD
ENDBRANCH  15  16
ENDBRANCH   5  15
TORSDOF 6
ENDMDL
MODEL 8
REMARK VINA RESULT:    -4.401     11.693     13.757
REMARK INTER + INTRA:          -5.553
REMARK INTER:                  -5.299
REMARK INTRA:                  -0.254
REMARK UNBOUND:                -0.252
REMARK  Name = GAL
REMARK  6 active torsions:
REMARK  status: ('A' for Active; 'I' for Inactive)
REMARK    1  A    between atoms: C_1  and  O_7
REMARK    2  A    between atoms: C_2  and  O_8
REMARK    3  A    between atoms: C_3  and  O_9
REMARK    4  A    between atoms: C_4  and  O_10
REMARK    5  A    between atoms: C_5  and  C_6
REMARK    6  A    between atoms: C_6  and  O_12
REMARK                            x       y       z     vdW  Elec       q    Type
REMARK                         _______ _______ _______ _____ _____    ______ ____
ROOT
ATOM      1  C   UNL     1      -9.121  -8.453   2.185  1.00  0.00    +0.000 C 
ATOM      2  C   UNL     1      -7.591  -8.505   2.218  1.00  0.00    +0.000 C 
ATOM      3  C   UNL     1      -7.041  -7.967   0.895  1.00  0.00    +0.000 C 
ATOM      4  C   UNL     1      -7.625  -8.787  -0.259  1.00  0.00    +0.000 C 
ATOM      5  C   UNL     1      -9.153  -8.725  -0.198  1.00  0.00    +0.000 C 
ATOM      6  O   UNL     1      -9.598  -9.210   1.071  1.00  0.00    +0.000 OA
ENDROOT
BRANCH   1   7
ATOM      7  O   UNL     1      -9.643  -9.006   3.396  1.00  0.00    +0.000 OA
ATOM      8  H   UNL     1     -10.288  -8.440   3.840  1.00  0.00    +0.000 HD
ENDBRANCH   1   7
BRANCH   2   9
ATOM      9  O   UNL     1      -7.109  -7.702   3.298  1.00  0.00    +0.000 OA
ATOM     10  H   UNL     1      -6.238  -7.312   3.141  1.00  0.00    +0.000 HD
ENDBRANCH   2   9
BRANCH   3  11
ATOM     11  O   UNL     1      -5.616  -8.079   0.887  1.00  0.00    +0.000 OA
ATOM     12  H   UNL     1      -5.293  -8.984   1.000  1.00  0.00    +0.000 HD
ENDBRANCH   3  11
BRANCH   4  13
ATOM     13  O   UNL     1      -7.198 -10.145  -0.144  1.00  0.00    +0.000 OA
ATOM     14  H   UNL     1      -7.635 -10.749  -0.761  1.00  0.00    +0.000 HD
ENDBRANCH   4  13
BRANCH   5  15
ATOM     15  C   UNL     1      -9.745  -9.591  -1.311  1.00  0.00    +0.000 C 
BRANCH  15  16
ATOM     16  O   UNL     1      -8.896  -9.535  -2.460  1.00  0.00    +0.000 OA
ATOM     17  H   UNL     1      -9.315  -9.847  -3.273  1.00  0.00    +0.000 HD
ENDBRANCH  15  16
ENDBRANCH   5  15
TORSDOF 6
ENDMDL
MODEL 9
REMARK VINA RESULT:    -4.349      9.754     11.498
REMARK INTER + INTRA:          -5.491
REMARK INTER:                  -5.237
REMARK INTRA:                  -0.254
REMARK UNBOUND:                -0.252
REMARK  Name = GAL
REMARK  6 active torsions:
REMARK  status: ('A' for Active; 'I' for Inactive)
REMARK    1  A    between atoms: C_1  and  O_7
REMARK    2  A    between atoms: C_2  and  O_8
REMARK    3  A    between atoms: C_3  and  O_9
REMARK    4  A    between atoms: C_4  and  O_10
REMARK    5  A    between atoms: C_5  and  C_6
REMARK    6  A    between atoms: C_6  and  O_12
REMARK                            x       y       z     vdW  Elec       q    Type
REMARK                         _______ _______ _______ _____ _____    ______ ____
ROOT
ATOM      1  C   UNL     1      14.988   1.362   3.662  1.00  0.00    +0.000 C 
ATOM      2  C   UNL     1      14.219   0.087   3.308  1.00  0.00    +0.000 C 
ATOM      3  C   UNL     1      12.803   0.461   2.859  1.00  0.00    +0.000 C 
ATOM      4  C   UNL     1      12.122   1.261   3.974  1.00  0.00    +0.000 C 
ATOM      5  C   UNL     1      12.971   2.491   4.303  1.00  0.00    +0.000 C 
ATOM      6  O   UNL     1      14.285   2.074   4.682  1.00  0.00    +0.000 OA
ENDROOT
BRANCH   1   7
ATOM      7  O   UNL     1      16.292   1.016   4.135  1.00  0.00    +0.000 OA
ATOM      8  H   UNL     1      16.294   0.578   4.997  1.00  0.00    +0.000 HD
ENDBRANCH   1   7
BRANCH   2   9
ATOM      9  O   UNL     1      14.891  -0.597   2.248  1.00  0.00    +0.000 OA
ATOM     10  H   UNL     1      14.518  -0.430   1.372  1.00  0.00    +0.000 HD
ENDBRANCH   2   9
BRANCH   3  11
ATOM     11  O   UNL     1      12.054  -0.727   2.597  1.00  0.00    +0.000 OA
ATOM     12  H   UNL     1      12.424  -1.523   3.004  1.00  0.00    +0.000 HD
ENDBRANCH   3  11
BRANCH   4  13
ATOM     13  O   UNL     1      11.994   0.444   5.139  1.00  0.00    +0.000 OA
ATOM     14  H   UNL     1      12.795   0.405   5.681  1.00  0.00    +0.000 HD
ENDBRANCH   4  13
BRANCH   5  15
ATOM     15  C   UNL     1      12.328   3.263   5.456  1.00  0.00    +0.000 C 
BRANCH  15  16
ATOM     16  O   UNL     1      10.906   3.128   5.384  1.00  0.00    +0.000 OA
ATOM     17  H   UNL     1      10.590   2.225   5.525  1.00  0.00    +0.000 HD
ENDBRANCH  15  16
ENDBRANCH   5  15
TORSDOF 6
ENDMDL
