MODEL 1
REMARK VINA RESULT:    -6.416      0.000      0.000
REMARK INTER + INTRA:          -7.166
REMARK INTER:                  -7.166
REMARK INTRA:                   0.000
REMARK UNBOUND:                 0.000
REMARK  Name = XYP
REMARK  4 active torsions:
REMARK  status: ('A' for Active; 'I' for Inactive)
REMARK    1  A    between atoms: O_1  and  C_2
REMARK    2  A    between atoms: C_3  and  O_7
REMARK    3  A    between atoms: C_4  and  O_8
REMARK    4  A    between atoms: C_5  and  O_9
REMARK                            x       y       z     vdW  Elec       q    Type
REMARK                         _______ _______ _______ _____ _____    ______ ____
ROOT
ATOM      1  C   UNL     1       4.148  -2.951   0.004  1.00  0.00    +0.000 C 
ATOM      2  C   UNL     1       4.561  -1.659   0.713  1.00  0.00    +0.000 C 
ATOM      3  C   UNL     1       3.767  -1.527   2.017  1.00  0.00    +0.000 C 
ATOM      4  C   UNL     1       2.273  -1.649   1.697  1.00  0.00    +0.000 C 
ATOM      5  C   UNL     1       2.033  -2.942   0.913  1.00  0.00    +0.000 C 
ATOM      6  O   UNL     1       2.758  -2.905  -0.313  1.00  0.00    +0.000 OA
ENDROOT
BRANCH   1   7
ATOM      7  O   UNL     1       4.906  -3.095  -1.198  1.00  0.00    +0.000 OA
ATOM      8  H   UNL     1       5.831  -3.188  -0.937  1.00  0.00    +0.000 HD
ENDBRANCH   1   7
BRANCH   2   9
ATOM      9  O   UNL     1       5.958  -1.699   1.003  1.00  0.00    +0.000 OA
ATOM     10  H   UNL     1       6.271  -2.580   0.755  1.00  0.00    +0.000 HD
ENDBRANCH   2   9
BRANCH   3  11
ATOM     11  O   UNL     1       4.033  -0.257   2.614  1.00  0.00    +0.000 OA
ATOM     12  H   UNL     1       3.385  -0.138   3.321  1.00  0.00    +0.000 HD
ENDBRANCH   3  11
BRANCH   4  13
ATOM     13  O   UNL     1       1.524  -1.680   2.913  1.00  0.00    +0.000 OA
ATOM     14  H   UNL     1       2.135  -1.948   3.612  1.00  0.00    +0.000 HD
ENDBRANCH   4  13
TORSDOF 4
ENDMDL
MODEL 2
REMARK VINA RESULT:    -5.906      1.254      3.579
REMARK INTER + INTRA:          -6.597
REMARK INTER:                  -6.597
REMARK INTRA:                   0.000
REMARK UNBOUND:                 0.000
REMARK  Name = XYP
REMARK  4 active torsions:
REMARK  status: ('A' for Active; 'I' for Inactive)
REMARK    1  A    between atoms: O_1  and  C_2
REMARK    2  A    between atoms: C_3  and  O_7
REMARK    3  A    between atoms: C_4  and  O_8
REMARK    4  A    between atoms: C_5  and  O_9
REMARK                            x       y       z     vdW  Elec       q    Type
REMARK                         _______ _______ _______ _____ _____    ______ ____
ROOT
ATOM      1  C   UNL     1       4.510  -1.780   2.325  1.00  0.00    +0.000 C 
ATOM      2  C   UNL     1       3.000  -1.967   2.167  1.00  0.00    +0.000 C 
ATOM      3  C   UNL     1       2.716  -2.644   0.822  1.00  0.00    +0.000 C 
ATOM      4  C   UNL     1       3.395  -1.835  -0.288  1.00  0.00    +0.000 C 
ATOM      5  C   UNL     1       4.876  -1.658   0.056  1.00  0.00    +0.000 C 
ATOM      6  O   UNL     1       5.005  -0.943   1.281  1.00  0.00    +0.000 OA
ENDROOT
BRANCH   1   7
ATOM      7  O   UNL     1       4.784  -1.176   3.590  1.00  0.00    +0.000 OA
ATOM      8  H   UNL     1       5.742  -1.199   3.710  1.00  0.00    +0.000 HD
ENDBRANCH   1   7
BRANCH   2   9
ATOM      9  O   UNL     1       2.505  -2.782   3.230  1.00  0.00    +0.000 OA
ATOM     10  H   UNL     1       1.686  -2.370   3.541  1.00  0.00    +0.000 HD
ENDBRANCH   2   9
BRANCH   3  11
ATOM     11  O   UNL     1       1.306  -2.691   0.596  1.00  0.00    +0.000 OA
ATOM     12  H   UNL     1       1.120  -3.534   0.163  1.00  0.00    +0.000 HD
ENDBRANCH   3  11
BRANCH   4  13
ATOM     13  O   UNL     1       3.272  -2.530  -1.531  1.00  0.00    +0.000 OA
ATOM     14  H   UNL     1       2.821  -3.364  -1.342  1.00  0.00    +0.000 HD
ENDBRANCH   4  13
TORSDOF 4
ENDMDL
MODEL 3
REMARK VINA RESULT:    -5.716      0.952      3.049
REMARK INTER + INTRA:          -6.385
REMARK INTER:                  -6.385
REMARK INTRA:                   0.000
REMARK UNBOUND:                 0.000
REMARK  Name = XYP
REMARK  4 active torsions:
REMARK  status: ('A' for Active; 'I' for Inactive)
REMARK    1  A    between atoms: O_1  and  C_2
REMARK    2  A    between atoms: C_3  and  O_7
REMARK    3  A    between atoms: C_4  and  O_8
REMARK    4  A    between atoms: C_5  and  O_9
REMARK                            x       y       z     vdW  Elec       q    Type
REMARK                         _______ _______ _______ _____ _____    ______ ____
ROOT
ATOM      1  C   UNL     1       2.227  -2.180   0.434  1.00  0.00    +0.000 C 
ATOM      2  C   UNL     1       2.696  -1.980   1.876  1.00  0.00    +0.000 C 
ATOM      3  C   UNL     1       4.091  -1.346   1.866  1.00  0.00    +0.000 C 
ATOM      4  C   UNL     1       5.013  -2.202   0.991  1.00  0.00    +0.000 C 
ATOM      5  C   UNL     1       4.368  -2.386  -0.384  1.00  0.00    +0.000 C 
ATOM      6  O   UNL     1       3.120  -3.060  -0.247  1.00  0.00    +0.000 OA
ENDROOT
BRANCH   1   7
ATOM      7  O   UNL     1       0.915  -2.744   0.436  1.00  0.00    +0.000 OA
ATOM      8  H   UNL     1       0.321  -2.074   0.073  1.00  0.00    +0.000 HD
ENDBRANCH   1   7
BRANCH   2   9
ATOM      9  O   UNL     1       1.784  -1.121   2.561  1.00  0.00    +0.000 OA
ATOM     10  H   UNL     1       1.317  -1.668   3.209  1.00  0.00    +0.000 HD
ENDBRANCH   2   9
BRANCH   3  11
ATOM     11  O   UNL     1       4.602  -1.289   3.199  1.00  0.00    +0.000 OA
ATOM     12  H   UNL     1       3.841  -1.338   3.793  1.00  0.00    +0.000 HD
ENDBRANCH   3  11
BRANCH   4  13
ATOM     13  O   UNL     1       6.276  -1.550   0.845  1.00  0.00    +0.000 OA
ATOM     14  H   UNL     1       6.919  -2.068   1.347  1.00  0.00    +0.000 HD
ENDBRANCH   4  13
TORSDOF 4
ENDMDL
MODEL 4
REMARK VINA RESULT:    -5.625      1.220      2.333
REMARK INTER + INTRA:          -6.283
REMARK INTER:                  -6.283
REMARK INTRA:                   0.000
REMARK UNBOUND:                 0.000
REMARK  Name = XYP
REMARK  4 active torsions:
REMARK  status: ('A' for Active; 'I' for Inactive)
REMARK    1  A    between atoms: O_1  and  C_2
REMARK    2  A    between atoms: C_3  and  O_7
REMARK    3  A    between atoms: C_4  and  O_8
REMARK    4  A    between atoms: C_5  and  O_9
REMARK                            x       y       z     vdW  Elec       q    Type
REMARK                         _______ _______ _______ _____ _____    ______ ____
ROOT
ATOM      1  C   UNL     1       2.855  -2.171  -0.008  1.00  0.00    +0.000 C 
ATOM      2  C   UNL     1       4.349  -1.871  -0.145  1.00  0.00    +0.000 C 
ATOM      3  C   UNL     1       5.024  -2.050   1.218  1.00  0.00    +0.000 C 
ATOM      4  C   UNL     1       4.278  -1.200   2.252  1.00  0.00    +0.000 C 
ATOM      5  C   UNL     1       2.789  -1.551   2.208  1.00  0.00    +0.000 C 
ATOM      6  O   UNL     1       2.262  -1.260   0.916  1.00  0.00    +0.000 OA
ENDROOT
BRANCH   1   7
ATOM      7  O   UNL     1       2.225  -2.033  -1.282  1.00  0.00    +0.000 OA
ATOM      8  H   UNL     1       1.298  -2.278  -1.164  1.00  0.00    +0.000 HD
ENDBRANCH   1   7
BRANCH   2   9
ATOM      9  O   UNL     1       4.932  -2.766  -1.092  1.00  0.00    +0.000 OA
ATOM     10  H   UNL     1       5.081  -2.259  -1.902  1.00  0.00    +0.000 HD
ENDBRANCH   2   9
BRANCH   3  11
ATOM     11  O   UNL     1       6.388  -1.632   1.138  1.00  0.00    +0.000 OA
ATOM     12  H   UNL     1       6.683  -1.462   2.043  1.00  0.00    +0.000 HD
ENDBRANCH   3  11
BRANCH   4  13
ATOM     13  O   UNL     1       4.795  -1.469   3.557  1.00  0.00    +0.000 OA
ATOM     14  H   UNL     1       4.040  -1.482   4.160  1.00  0.00    +0.000 HD
ENDBRANCH   4  13
TORSDOF 4
ENDMDL
MODEL 5
REMARK VINA RESULT:    -5.614      0.683      3.207
REMARK INTER + INTRA:          -6.270
REMARK INTER:                  -6.270
REMARK INTRA:                   0.000
REMARK UNBOUND:                 0.000
REMARK  Name = XYP
REMARK  4 active torsions:
REMARK  status: ('A' for Active; 'I' for Inactive)
REMARK    1  A    between atoms: O_1  and  C_2
REMARK    2  A    between atoms: C_3  and  O_7
REMARK    3  A    between atoms: C_4  and  O_8
REMARK    4  A    between atoms: C_5  and  O_9
REMARK                            x       y       z     vdW  Elec       q    Type
REMARK                         _______ _______ _______ _____ _____    ______ ____
ROOT
ATOM      1  C   UNL     1       2.325  -1.648   1.880  1.00  0.00    +0.000 C 
ATOM      2  C   UNL     1       3.822  -1.500   2.163  1.00  0.00    +0.000 C 
ATOM      3  C   UNL     1       4.599  -1.671   0.854  1.00  0.00    +0.000 C 
ATOM      4  C   UNL     1       4.183  -2.996   0.205  1.00  0.00    +0.000 C 
ATOM      5  C   UNL     1       2.659  -3.031   0.071  1.00  0.00    +0.000 C 
ATOM      6  O   UNL     1       2.058  -2.949   1.360  1.00  0.00    +0.000 OA
ENDROOT
BRANCH   1   7
ATOM      7  O   UNL     1       1.593  -1.461   3.092  1.00  0.00    +0.000 OA
ATOM      8  H   UNL     1       2.196  -1.661   3.819  1.00  0.00    +0.000 HD
ENDBRANCH   1   7
BRANCH   2   9
ATOM      9  O   UNL     1       4.079  -0.206   2.710  1.00  0.00    +0.000 OA
ATOM     10  H   UNL     1       4.684   0.240   2.100  1.00  0.00    +0.000 HD
ENDBRANCH   2   9
BRANCH   3  11
ATOM     11  O   UNL     1       6.001  -1.682   1.126  1.00  0.00    +0.000 OA
ATOM     12  H   UNL     1       6.219  -0.823   1.513  1.00  0.00    +0.000 HD
ENDBRANCH   3  11
BRANCH   4  13
ATOM     13  O   UNL     1       4.781  -3.104  -1.088  1.00  0.00    +0.000 OA
ATOM     14  H   UNL     1       4.073  -2.984  -1.735  1.00  0.00    +0.000 HD
ENDBRANCH   4  13
TORSDOF 4
ENDMDL
MODEL 6
REMARK VINA RESULT:    -5.545      1.083      3.042
REMARK INTER + INTRA:          -6.193
REMARK INTER:                  -6.193
REMARK INTRA:                   0.000
REMARK UNBOUND:                 0.000
REMARK  Name = XYP
REMARK  4 active torsions:
REMARK  status: ('A' for Active; 'I' for Inactive)
REMARK    1  A    between atoms: O_1  and  C_2
REMARK    2  A    between atoms: C_3  and  O_7
REMARK    3  A    between atoms: C_4  and  O_8
REMARK    4  A    between atoms: C_5  and  O_9
REMARK                            x       y       z     vdW  Elec       q    Type
REMARK                         _______ _______ _______ _____ _____    ______ ____
ROOT
ATOM      1  C   UNL     1       4.231  -1.278   2.307  1.00  0.00    +0.000 C 
ATOM      2  C   UNL     1       5.021  -2.090   1.279  1.00  0.00    +0.000 C 
ATOM      3  C   UNL     1       4.364  -1.934  -0.096  1.00  0.00    +0.000 C 
ATOM      4  C   UNL     1       2.880  -2.298   0.025  1.00  0.00    +0.000 C 
ATOM      5  C   UNL     1       2.251  -1.471   1.149  1.00  0.00    +0.000 C 
ATOM      6  O   UNL     1       2.893  -1.768   2.385  1.00  0.00    +0.000 OA
ENDROOT
BRANCH   1   7
ATOM      7  O   UNL     1       4.855  -1.395   3.586  1.00  0.00    +0.000 OA
ATOM      8  H   UNL     1       5.106  -2.322   3.692  1.00  0.00    +0.000 HD
ENDBRANCH   1   7
BRANCH   2   9
ATOM      9  O   UNL     1       6.366  -1.613   1.225  1.00  0.00    +0.000 OA
ATOM     10  H   UNL     1       6.704  -1.625   2.132  1.00  0.00    +0.000 HD
ENDBRANCH   2   9
BRANCH   3  11
ATOM     11  O   UNL     1       5.002  -2.801  -1.034  1.00  0.00    +0.000 OA
ATOM     12  H   UNL     1       4.618  -2.608  -1.900  1.00  0.00    +0.000 HD
ENDBRANCH   3  11
BRANCH   4  13
ATOM     13  O   UNL     1       2.215  -2.015  -1.208  1.00  0.00    +0.000 OA
ATOM     14  H   UNL     1       1.920  -2.862  -1.567  1.00  0.00    +0.000 HD
ENDBRANCH   4  13
TORSDOF 4
ENDMDL
MODEL 7
REMARK VINA RESULT:    -5.354      1.084      3.981
REMARK INTER + INTRA:          -5.980
REMARK INTER:                  -5.980
REMARK INTRA:                   0.000
REMARK UNBOUND:                 0.000
REMARK  Name = XYP
REMARK  4 active torsions:
REMARK  status: ('A' for Active; 'I' for Inactive)
REMARK    1  A    between atoms: O_1  and  C_2
REMARK    2  A    between atoms: C_3  and  O_7
REMARK    3  A    between atoms: C_4  and  O_8
REMARK    4  A    between atoms: C_5  and  O_9
REMARK                            x       y       z     vdW  Elec       q    Type
REMARK                         _______ _______ _______ _____ _____    ______ ____
ROOT
ATOM      1  C   UNL     1       2.585  -1.638   2.206  1.00  0.00    +0.000 C 
ATOM      2  C   UNL     1       2.252  -1.779   0.720  1.00  0.00    +0.000 C 
ATOM      3  C   UNL     1       3.417  -2.476   0.009  1.00  0.00    +0.000 C 
ATOM      4  C   UNL     1       4.709  -1.715   0.321  1.00  0.00    +0.000 C 
ATOM      5  C   UNL     1       4.856  -1.578   1.838  1.00  0.00    +0.000 C 
ATOM      6  O   UNL     1       3.757  -0.841   2.365  1.00  0.00    +0.000 OA
ENDROOT
BRANCH   1   7
ATOM      7  O   UNL     1       1.490  -1.015   2.880  1.00  0.00    +0.000 OA
ATOM      8  H   UNL     1       1.708  -1.008   3.821  1.00  0.00    +0.000 HD
ENDBRANCH   1   7
BRANCH   2   9
ATOM      9  O   UNL     1       1.063  -2.555   0.567  1.00  0.00    +0.000 OA
ATOM     10  H   UNL     1       0.781  -2.814   1.456  1.00  0.00    +0.000 HD
ENDBRANCH   2   9
BRANCH   3  11
ATOM     11  O   UNL     1       3.185  -2.483  -1.400  1.00  0.00    +0.000 OA
ATOM     12  H   UNL     1       2.335  -2.046  -1.547  1.00  0.00    +0.000 HD
ENDBRANCH   3  11
BRANCH   4  13
ATOM     13  O   UNL     1       5.827  -2.432  -0.205  1.00  0.00    +0.000 OA
ATOM     14  H   UNL     1       6.452  -1.774  -0.535  1.00  0.00    +0.000 HD
ENDBRANCH   4  13
TORSDOF 4
ENDMDL
MODEL 8
REMARK VINA RESULT:    -5.305      1.199      2.727
REMARK INTER + INTRA:          -5.926
REMARK INTER:                  -5.926
REMARK INTRA:                   0.000
REMARK UNBOUND:                 0.000
REMARK  Name = XYP
REMARK  4 active torsions:
REMARK  status: ('A' for Active; 'I' for Inactive)
REMARK    1  A    between atoms: O_1  and  C_2
REMARK    2  A    between atoms: C_3  and  O_7
REMARK    3  A    between atoms: C_4  and  O_8
REMARK    4  A    between atoms: C_5  and  O_9
REMARK                            x       y       z     vdW  Elec       q    Type
REMARK                         _______ _______ _______ _____ _____    ______ ____
ROOT
ATOM      1  C   UNL     1       3.816  -2.162  -0.246  1.00  0.00    +0.000 C 
ATOM      2  C   UNL     1       2.859  -2.701   0.820  1.00  0.00    +0.000 C 
ATOM      3  C   UNL     1       3.096  -1.950   2.134  1.00  0.00    +0.000 C 
ATOM      4  C   UNL     1       4.585  -2.036   2.487  1.00  0.00    +0.000 C 
ATOM      5  C   UNL     1       5.411  -1.547   1.295  1.00  0.00    +0.000 C 
ATOM      6  O   UNL     1       5.165  -2.378   0.164  1.00  0.00    +0.000 OA
ENDROOT
BRANCH   1   7
ATOM      7  O   UNL     1       3.580  -2.838  -1.481  1.00  0.00    +0.000 OA
ATOM      8  H   UNL     1       2.723  -3.276  -1.402  1.00  0.00    +0.000 HD
ENDBRANCH   1   7
BRANCH   2   9
ATOM      9  O   UNL     1       1.510  -2.509   0.392  1.00  0.00    +0.000 OA
ATOM     10  H   UNL     1       1.292  -3.251  -0.189  1.00  0.00    +0.000 HD
ENDBRANCH   2   9
BRANCH   3  11
ATOM     11  O   UNL     1       2.315  -2.542   3.173  1.00  0.00    +0.000 OA
ATOM     12  H   UNL     1       2.251  -3.485   2.972  1.00  0.00    +0.000 HD
ENDBRANCH   3  11
BRANCH   4  13
ATOM     13  O   UNL     1       4.855  -1.217   3.626  1.00  0.00    +0.000 OA
ATOM     14  H   UNL     1       4.364  -1.596   4.367  1.00  0.00    +0.000 HD
ENDBRANCH   4  13
TORSDOF 4
ENDMDL
MODEL 9
REMARK VINA RESULT:    -5.294      1.078      2.132
REMARK INTER + INTRA:          -5.913
REMARK INTER:                  -5.913
REMARK INTRA:                   0.000
REMARK UNBOUND:                 0.000
REMARK  Name = XYP
REMARK  4 active torsions:
REMARK  status: ('A' for Active; 'I' for Inactive)
REMARK    1  A    between atoms: O_1  and  C_2
REMARK    2  A    between atoms: C_3  and  O_7
REMARK    3  A    between atoms: C_4  and  O_8
REMARK    4  A    between atoms: C_5  and  O_9
REMARK                            x       y       z     vdW  Elec       q    Type
REMARK                         _______ _______ _______ _____ _____    ______ ____
ROOT
ATOM      1  C   UNL     1       5.119  -2.060   1.044  1.00  0.00    +0.000 C 
ATOM      2  C   UNL     1       4.198  -1.263   1.968  1.00  0.00    +0.000 C 
ATOM      3  C   UNL     1       2.789  -1.862   1.912  1.00  0.00    +0.000 C 
ATOM      4  C   UNL     1       2.344  -1.933   0.447  1.00  0.00    +0.000 C 
ATOM      5  C   UNL     1       3.406  -2.681  -0.363  1.00  0.00    +0.000 C 
ATOM      6  O   UNL     1       4.644  -1.979  -0.299  1.00  0.00    +0.000 OA
ENDROOT
BRANCH   1   7
ATOM      7  O   UNL     1       6.441  -1.525   1.114  1.00  0.00    +0.000 OA
ATOM      8  H   UNL     1       7.031  -2.181   0.719  1.00  0.00    +0.000 HD
ENDBRANCH   1   7
BRANCH   2   9
ATOM      9  O   UNL     1       4.693  -1.324   3.306  1.00  0.00    +0.000 OA
ATOM     10  H   UNL     1       4.921  -0.419   3.562  1.00  0.00    +0.000 HD
ENDBRANCH   2   9
BRANCH   3  11
ATOM     11  O   UNL     1       1.887  -1.039   2.654  1.00  0.00    +0.000 OA
ATOM     12  H   UNL     1       1.843  -0.189   2.197  1.00  0.00    +0.000 HD
ENDBRANCH   3  11
BRANCH   4  13
ATOM     13  O   UNL     1       1.098  -2.627   0.359  1.00  0.00    +0.000 OA
ATOM     14  H   UNL     1       1.300  -3.533   0.090  1.00  0.00    +0.000 HD
ENDBRANCH   4  13
TORSDOF 4
ENDMDL
