MODEL 1
REMARK VINA RESULT:    -5.706      0.000      0.000
REMARK INTER + INTRA:          -6.785
REMARK INTER:                  -6.707
REMARK INTRA:                  -0.078
REMARK UNBOUND:                -0.078
REMARK  Name = BDR
REMARK  5 active torsions:
REMARK  status: ('A' for Active; 'I' for Inactive)
REMARK    1  A    between atoms: C_1  and  C_9
REMARK    2  A    between atoms: C_3  and  O_4
REMARK    3  A    between atoms: C_5  and  O_6
REMARK    4  A    between atoms: C_7  and  O_8
REMARK    5  A    between atoms: C_9  and  O_10
REMARK                            x       y       z     vdW  Elec       q    Type
REMARK                         _______ _______ _______ _____ _____    ______ ____
ROOT
ATOM      1  C   UNL     1       2.803  -1.346   1.105  1.00  0.00    +0.000 C 
ATOM      2  O   UNL     1       4.138  -1.080   1.567  1.00  0.00    +0.000 OA
ATOM      3  C   UNL     1       5.039  -1.520   0.530  1.00  0.00    +0.000 C 
ATOM      4  C   UNL     1       4.401  -2.841   0.032  1.00  0.00    +0.000 C 
ATOM      5  C   UNL     1       2.886  -2.519   0.110  1.00  0.00    +0.000 C 
ENDROOT
BRANCH   3   6
ATOM      6  O   UNL     1       6.343  -1.756   1.064  1.00  0.00    +0.000 OA
ATOM      7  H   UNL     1       6.329  -2.637   1.460  1.00  0.00    +0.000 HD
ENDBRANCH   3   6
BRANCH   4   8
ATOM      8  O   UNL     1       4.794  -3.122  -1.312  1.00  0.00    +0.000 OA
ATOM      9  H   UNL     1       4.269  -2.545  -1.883  1.00  0.00    +0.000 HD
ENDBRANCH   4   8
BRANCH   5  10
ATOM     10  O   UNL     1       2.391  -2.132  -1.173  1.00  0.00    +0.000 OA
ATOM     11  H   UNL     1       1.442  -1.974  -1.071  1.00  0.00    +0.000 HD
ENDBRANCH   5  10
BRANCH   1  12
ATOM     12  C   UNL     1       1.910  -1.726   2.285  1.00  0.00    +0.000 C 
BRANCH  12  13
ATOM     13  O   UNL     1       2.621  -2.604   3.160  1.00  0.00    +0.000 OA
ATOM     14  H   UNL     1       3.121  -3.212   2.601  1.00  0.00    +0.000 HD
ENDBRANCH  12  13
ENDBRANCH   1  12
TORSDOF 5
ENDMDL
MODEL 2
REMARK VINA RESULT:    -5.584      1.417      3.323
REMARK INTER + INTRA:          -6.642
REMARK INTER:                  -6.623
REMARK INTRA:                  -0.019
REMARK UNBOUND:                -0.078
REMARK  Name = BDR
REMARK  5 active torsions:
REMARK  status: ('A' for Active; 'I' for Inactive)
REMARK    1  A    between atoms: C_1  and  C_9
REMARK    2  A    between atoms: C_3  and  O_4
REMARK    3  A    between atoms: C_5  and  O_6
REMARK    4  A    between atoms: C_7  and  O_8
REMARK    5  A    between atoms: C_9  and  O_10
REMARK                            x       y       z     vdW  Elec       q    Type
REMARK                         _______ _______ _______ _____ _____    ______ ____
ROOT
ATOM      1  C   UNL     1       4.128  -2.875   0.325  1.00  0.00    +0.000 C 
ATOM      2  O   UNL     1       4.944  -2.428   1.420  1.00  0.00    +0.000 OA
ATOM      3  C   UNL     1       4.048  -1.978   2.457  1.00  0.00    +0.000 C 
ATOM      4  C   UNL     1       2.934  -1.236   1.678  1.00  0.00    +0.000 C 
ATOM      5  C   UNL     1       2.792  -2.111   0.405  1.00  0.00    +0.000 C 
ENDROOT
BRANCH   3   6
ATOM      6  O   UNL     1       4.720  -1.088   3.351  1.00  0.00    +0.000 OA
ATOM      7  H   UNL     1       5.296  -0.530   2.812  1.00  0.00    +0.000 HD
ENDBRANCH   3   6
BRANCH   4   8
ATOM      8  O   UNL     1       1.715  -1.220   2.422  1.00  0.00    +0.000 OA
ATOM      9  H   UNL     1       1.951  -1.035   3.341  1.00  0.00    +0.000 HD
ENDBRANCH   4   8
BRANCH   5  10
ATOM     10  O   UNL     1       1.697  -3.018   0.540  1.00  0.00    +0.000 OA
ATOM     11  H   UNL     1       1.662  -3.537  -0.274  1.00  0.00    +0.000 HD
ENDBRANCH   5  10
BRANCH   1  12
ATOM     12  C   UNL     1       4.824  -2.570  -1.001  1.00  0.00    +0.000 C 
BRANCH  12  13
ATOM     13  O   UNL     1       5.134  -3.793  -1.671  1.00  0.00    +0.000 OA
ATOM     14  H   UNL     1       6.073  -3.963  -1.525  1.00  0.00    +0.000 HD
ENDBRANCH  12  13
ENDBRANCH   1  12
TORSDOF 5
ENDMDL
MODEL 3
REMARK VINA RESULT:    -5.431      1.262      2.542
REMARK INTER + INTRA:          -6.462
REMARK INTER:                  -6.398
REMARK INTRA:                  -0.064
REMARK UNBOUND:                -0.078
REMARK  Name = BDR
REMARK  5 active torsions:
REMARK  status: ('A' for Active; 'I' for Inactive)
REMARK    1  A    between atoms: C_1  and  C_9
REMARK    2  A    between atoms: C_3  and  O_4
REMARK    3  A    between atoms: C_5  and  O_6
REMARK    4  A    between atoms: C_7  and  O_8
REMARK    5  A    between atoms: C_9  and  O_10
REMARK                            x       y       z     vdW  Elec       q    Type
REMARK                         _______ _______ _______ _____ _____    ______ ____
ROOT
ATOM      1  C   UNL     1       3.046  -2.563   1.632  1.00  0.00    +0.000 C 
ATOM      2  O   UNL     1       3.179  -3.262   0.384  1.00  0.00    +0.000 OA
ATOM      3  C   UNL     1       4.501  -2.978  -0.120  1.00  0.00    +0.000 C 
ATOM      4  C   UNL     1       4.699  -1.477   0.208  1.00  0.00    +0.000 C 
ATOM      5  C   UNL     1       3.995  -1.351   1.584  1.00  0.00    +0.000 C 
ENDROOT
BRANCH   3   6
ATOM      6  O   UNL     1       4.561  -3.201  -1.530  1.00  0.00    +0.000 OA
ATOM      7  H   UNL     1       4.254  -4.104  -1.685  1.00  0.00    +0.000 HD
ENDBRANCH   3   6
BRANCH   4   8
ATOM      8  O   UNL     1       6.087  -1.157   0.315  1.00  0.00    +0.000 OA
ATOM      9  H   UNL     1       6.201  -0.276  -0.066  1.00  0.00    +0.000 HD
ENDBRANCH   4   8
BRANCH   5  10
ATOM     10  O   UNL     1       4.952  -1.413   2.644  1.00  0.00    +0.000 OA
ATOM     11  H   UNL     1       4.683  -0.759   3.302  1.00  0.00    +0.000 HD
ENDBRANCH   5  10
BRANCH   1  12
ATOM     12  C   UNL     1       1.604  -2.090   1.812  1.00  0.00    +0.000 C 
BRANCH  12  13
ATOM     13  O   UNL     1       1.570  -0.997   2.730  1.00  0.00    +0.000 OA
ATOM     14  H   UNL     1       1.305  -0.216   2.227  1.00  0.00    +0.000 HD
ENDBRANCH  12  13
ENDBRANCH   1  12
TORSDOF 5
ENDMDL
MODEL 4
REMARK VINA RESULT:    -5.171      1.349      3.899
REMARK INTER + INTRA:          -6.157
REMARK INTER:                  -6.082
REMARK INTRA:                  -0.074
REMARK UNBOUND:                -0.078
REMARK  Name = BDR
REMARK  5 active torsions:
REMARK  status: ('A' for Active; 'I' for Inactive)
REMARK    1  A    between atoms: C_1  and  C_9
REMARK    2  A    between atoms: C_3  and  O_4
REMARK    3  A    between atoms: C_5  and  O_6
REMARK    4  A    between atoms: C_7  and  O_8
REMARK    5  A    between atoms: C_9  and  O_10
REMARK                            x       y       z     vdW  Elec       q    Type
REMARK                         _______ _______ _______ _____ _____    ______ ____
ROOT
ATOM      1  C   UNL     1       4.167  -1.459   0.435  1.00  0.00    +0.000 C 
ATOM      2  O   UNL     1       2.918  -1.822  -0.177  1.00  0.00    +0.000 OA
ATOM      3  C   UNL     1       1.962  -1.998   0.890  1.00  0.00    +0.000 C 
ATOM      4  C   UNL     1       2.778  -2.718   1.993  1.00  0.00    +0.000 C 
ATOM      5  C   UNL     1       4.167  -2.041   1.861  1.00  0.00    +0.000 C 
ENDROOT
BRANCH   3   6
ATOM      6  O   UNL     1       0.869  -2.810   0.457  1.00  0.00    +0.000 OA
ATOM      7  H   UNL     1       0.176  -2.728   1.125  1.00  0.00    +0.000 HD
ENDBRANCH   3   6
BRANCH   4   8
ATOM      8  O   UNL     1       2.214  -2.476   3.283  1.00  0.00    +0.000 OA
ATOM      9  H   UNL     1       2.944  -2.218   3.862  1.00  0.00    +0.000 HD
ENDBRANCH   4   8
BRANCH   5  10
ATOM     10  O   UNL     1       4.313  -1.003   2.832  1.00  0.00    +0.000 OA
ATOM     11  H   UNL     1       4.602  -0.214   2.356  1.00  0.00    +0.000 HD
ENDBRANCH   5  10
BRANCH   1  12
ATOM     12  C   UNL     1       5.328  -2.046  -0.368  1.00  0.00    +0.000 C 
BRANCH  12  13
ATOM     13  O   UNL     1       4.861  -3.145  -1.151  1.00  0.00    +0.000 OA
ATOM     14  H   UNL     1       4.066  -2.845  -1.609  1.00  0.00    +0.000 HD
ENDBRANCH  12  13
ENDBRANCH   1  12
TORSDOF 5
ENDMDL
MODEL 5
REMARK VINA RESULT:    -5.102      1.649      2.957
REMARK INTER + INTRA:          -6.075
REMARK INTER:                  -6.036
REMARK INTRA:                  -0.039
REMARK UNBOUND:                -0.078
REMARK  Name = BDR
REMARK  5 active torsions:
REMARK  status: ('A' for Active; 'I' for Inactive)
REMARK    1  A    between atoms: C_1  and  C_9
REMARK    2  A    between atoms: C_3  and  O_4
REMARK    3  A    between atoms: C_5  and  O_6
REMARK    4  A    between atoms: C_7  and  O_8
REMARK    5  A    between atoms: C_9  and  O_10
REMARK                            x       y       z     vdW  Elec       q    Type
REMARK                         _______ _______ _______ _____ _____    ______ ____
ROOT
ATOM      1  C   UNL     1       3.995  -1.235   1.856  1.00  0.00    +0.000 C 
ATOM      2  O   UNL     1       4.320  -1.455   0.473  1.00  0.00    +0.000 OA
ATOM      3  C   UNL     1       3.086  -1.774  -0.204  1.00  0.00    +0.000 C 
ATOM      4  C   UNL     1       2.345  -2.688   0.804  1.00  0.00    +0.000 C 
ATOM      5  C   UNL     1       2.719  -2.041   2.163  1.00  0.00    +0.000 C 
ENDROOT
BRANCH   3   6
ATOM      6  O   UNL     1       3.348  -2.471  -1.424  1.00  0.00    +0.000 OA
ATOM      7  H   UNL     1       3.717  -1.827  -2.042  1.00  0.00    +0.000 HD
ENDBRANCH   3   6
BRANCH   4   8
ATOM      8  O   UNL     1       0.933  -2.643   0.589  1.00  0.00    +0.000 OA
ATOM      9  H   UNL     1       0.540  -3.298   1.181  1.00  0.00    +0.000 HD
ENDBRANCH   4   8
BRANCH   5  10
ATOM     10  O   UNL     1       1.671  -1.180   2.613  1.00  0.00    +0.000 OA
ATOM     11  H   UNL     1       1.397  -0.652   1.851  1.00  0.00    +0.000 HD
ENDBRANCH   5  10
BRANCH   1  12
ATOM     12  C   UNL     1       5.143  -1.718   2.743  1.00  0.00    +0.000 C 
BRANCH  12  13
ATOM     13  O   UNL     1       5.124  -1.004   3.980  1.00  0.00    +0.000 OA
ATOM     14  H   UNL     1       5.184  -1.663   4.684  1.00  0.00    +0.000 HD
ENDBRANCH  12  13
ENDBRANCH   1  12
TORSDOF 5
ENDMDL
MODEL 6
REMARK VINA RESULT:    -4.952      1.473      3.265
REMARK INTER + INTRA:          -5.899
REMARK INTER:                  -5.831
REMARK INTRA:                  -0.068
REMARK UNBOUND:                -0.078
REMARK  Name = BDR
REMARK  5 active torsions:
REMARK  status: ('A' for Active; 'I' for Inactive)
REMARK    1  A    between atoms: C_1  and  C_9
REMARK    2  A    between atoms: C_3  and  O_4
REMARK    3  A    between atoms: C_5  and  O_6
REMARK    4  A    between atoms: C_7  and  O_8
REMARK    5  A    between atoms: C_9  and  O_10
REMARK                            x       y       z     vdW  Elec       q    Type
REMARK                         _______ _______ _______ _____ _____    ______ ____
ROOT
ATOM      1  C   UNL     1       4.629  -2.464   1.310  1.00  0.00    +0.000 C 
ATOM      2  O   UNL     1       3.981  -1.627   2.281  1.00  0.00    +0.000 OA
ATOM      3  C   UNL     1       2.564  -1.882   2.178  1.00  0.00    +0.000 C 
ATOM      4  C   UNL     1       2.328  -2.006   0.653  1.00  0.00    +0.000 C 
ATOM      5  C   UNL     1       3.614  -2.735   0.184  1.00  0.00    +0.000 C 
ENDROOT
BRANCH   3   6
ATOM      6  O   UNL     1       1.816  -0.792   2.721  1.00  0.00    +0.000 OA
ATOM      7  H   UNL     1       1.039  -1.172   3.152  1.00  0.00    +0.000 HD
ENDBRANCH   3   6
BRANCH   4   8
ATOM      8  O   UNL     1       1.168  -2.795   0.379  1.00  0.00    +0.000 OA
ATOM      9  H   UNL     1       0.477  -2.495   0.985  1.00  0.00    +0.000 HD
ENDBRANCH   4   8
BRANCH   5  10
ATOM     10  O   UNL     1       3.373  -4.137   0.045  1.00  0.00    +0.000 OA
ATOM     11  H   UNL     1       3.447  -4.521   0.928  1.00  0.00    +0.000 HD
ENDBRANCH   5  10
BRANCH   1  12
ATOM     12  C   UNL     1       5.856  -1.748   0.744  1.00  0.00    +0.000 C 
BRANCH  12  13
ATOM     13  O   UNL     1       5.457  -0.516   0.144  1.00  0.00    +0.000 OA
ATOM     14  H   UNL     1       4.502  -0.442   0.263  1.00  0.00    +0.000 HD
ENDBRANCH  12  13
ENDBRANCH   1  12
TORSDOF 5
ENDMDL
MODEL 7
REMARK VINA RESULT:    -4.939      1.557      2.901
REMARK INTER + INTRA:          -5.884
REMARK INTER:                  -5.819
REMARK INTRA:                  -0.065
REMARK UNBOUND:                -0.078
REMARK  Name = BDR
REMARK  5 active torsions:
REMARK  status: ('A' for Active; 'I' for Inactive)
REMARK    1  A    between atoms: C_1  and  C_9
REMARK    2  A    between atoms: C_3  and  O_4
REMARK    3  A    between atoms: C_5  and  O_6
REMARK    4  A    between atoms: C_7  and  O_8
REMARK    5  A    between atoms: C_9  and  O_10
REMARK                            x       y       z     vdW  Elec       q    Type
REMARK                         _______ _______ _______ _____ _____    ______ ____
ROOT
ATOM      1  C   UNL     1       4.130  -2.408   1.973  1.00  0.00    +0.000 C 
ATOM      2  O   UNL     1       2.722  -2.682   2.071  1.00  0.00    +0.000 OA
ATOM      3  C   UNL     1       2.254  -2.963   0.735  1.00  0.00    +0.000 C 
ATOM      4  C   UNL     1       3.011  -1.933  -0.139  1.00  0.00    +0.000 C 
ATOM      5  C   UNL     1       4.398  -1.878   0.552  1.00  0.00    +0.000 C 
ENDROOT
BRANCH   3   6
ATOM      6  O   UNL     1       0.842  -2.765   0.645  1.00  0.00    +0.000 OA
ATOM      7  H   UNL     1       0.633  -2.654  -0.292  1.00  0.00    +0.000 HD
ENDBRANCH   3   6
BRANCH   4   8
ATOM      8  O   UNL     1       3.130  -2.396  -1.485  1.00  0.00    +0.000 OA
ATOM      9  H   UNL     1       2.625  -1.785  -2.037  1.00  0.00    +0.000 HD
ENDBRANCH   4   8
BRANCH   5  10
ATOM     10  O   UNL     1       5.332  -2.715  -0.133  1.00  0.00    +0.000 OA
ATOM     11  H   UNL     1       5.345  -2.424  -1.055  1.00  0.00    +0.000 HD
ENDBRANCH   5  10
BRANCH   1  12
ATOM     12  C   UNL     1       4.527  -1.354   3.006  1.00  0.00    +0.000 C 
BRANCH  12  13
ATOM     13  O   UNL     1       3.833  -0.135   2.738  1.00  0.00    +0.000 OA
ATOM     14  H   UNL     1       4.231   0.246   1.945  1.00  0.00    +0.000 HD
ENDBRANCH  12  13
ENDBRANCH   1  12
TORSDOF 5
ENDMDL
MODEL 8
REMARK VINA RESULT:    -4.920      1.294      3.048
REMARK INTER + INTRA:          -5.861
REMARK INTER:                  -5.797
REMARK INTRA:                  -0.064
REMARK UNBOUND:                -0.078
REMARK  Name = BDR
REMARK  5 active torsions:
REMARK  status: ('A' for Active; 'I' for Inactive)
REMARK    1  A    between atoms: C_1  and  C_9
REMARK    2  A    between atoms: C_3  and  O_4
REMARK    3  A    between atoms: C_5  and  O_6
REMARK    4  A    between atoms: C_7  and  O_8
REMARK    5  A    between atoms: C_9  and  O_10
REMARK                            x       y       z     vdW  Elec       q    Type
REMARK                         _______ _______ _______ _____ _____    ______ ____
ROOT
ATOM      1  C   UNL     1       2.869  -2.760   1.043  1.00  0.00    +0.000 C 
ATOM      2  O   UNL     1       4.101  -2.548   0.334  1.00  0.00    +0.000 OA
ATOM      3  C   UNL     1       5.088  -2.158   1.312  1.00  0.00    +0.000 C 
ATOM      4  C   UNL     1       4.307  -1.213   2.258  1.00  0.00    +0.000 C 
ATOM      5  C   UNL     1       2.912  -1.889   2.312  1.00  0.00    +0.000 C 
ENDROOT
BRANCH   3   6
ATOM      6  O   UNL     1       6.171  -1.468   0.685  1.00  0.00    +0.000 OA
ATOM      7  H   UNL     1       6.744  -1.144   1.393  1.00  0.00    +0.000 HD
ENDBRANCH   3   6
BRANCH   4   8
ATOM      8  O   UNL     1       4.907  -1.180   3.554  1.00  0.00    +0.000 OA
ATOM      9  H   UNL     1       4.301  -1.636   4.154  1.00  0.00    +0.000 HD
ENDBRANCH   4   8
BRANCH   5  10
ATOM     10  O   UNL     1       2.791  -2.695   3.485  1.00  0.00    +0.000 OA
ATOM     11  H   UNL     1       3.656  -3.099   3.637  1.00  0.00    +0.000 HD
ENDBRANCH   5  10
BRANCH   1  12
ATOM     12  C   UNL     1       1.687  -2.347   0.166  1.00  0.00    +0.000 C 
BRANCH  12  13
ATOM     13  O   UNL     1       2.170  -1.735  -1.031  1.00  0.00    +0.000 OA
ATOM     14  H   UNL     1       2.925  -1.188  -0.781  1.00  0.00    +0.000 HD
ENDBRANCH  12  13
ENDBRANCH   1  12
TORSDOF 5
ENDMDL
MODEL 9
REMARK VINA RESULT:    -4.823      1.557      2.084
REMARK INTER + INTRA:          -5.747
REMARK INTER:                  -5.681
REMARK INTRA:                  -0.066
REMARK UNBOUND:                -0.078
REMARK  Name = BDR
REMARK  5 active torsions:
REMARK  status: ('A' for Active; 'I' for Inactive)
REMARK    1  A    between atoms: C_1  and  C_9
REMARK    2  A    between atoms: C_3  and  O_4
REMARK    3  A    between atoms: C_5  and  O_6
REMARK    4  A    between atoms: C_7  and  O_8
REMARK    5  A    between atoms: C_9  and  O_10
REMARK                            x       y       z     vdW  Elec       q    Type
REMARK                         _______ _______ _______ _____ _____    ______ ____
ROOT
ATOM      1  C   UNL     1       2.432  -1.578   0.815  1.00  0.00    +0.000 C 
ATOM      2  O   UNL     1       2.851  -1.362   2.173  1.00  0.00    +0.000 OA
ATOM      3  C   UNL     1       4.192  -0.833   2.120  1.00  0.00    +0.000 C 
ATOM      4  C   UNL     1       4.861  -1.651   0.988  1.00  0.00    +0.000 C 
ATOM      5  C   UNL     1       3.700  -1.809  -0.028  1.00  0.00    +0.000 C 
ENDROOT
BRANCH   3   6
ATOM      6  O   UNL     1       4.866  -1.043   3.363  1.00  0.00    +0.000 OA
ATOM      7  H   UNL     1       4.350  -0.588   4.042  1.00  0.00    +0.000 HD
ENDBRANCH   3   6
BRANCH   4   8
ATOM      8  O   UNL     1       5.949  -0.927   0.409  1.00  0.00    +0.000 OA
ATOM      9  H   UNL     1       6.706  -1.528   0.393  1.00  0.00    +0.000 HD
ENDBRANCH   4   8
BRANCH   5  10
ATOM     10  O   UNL     1       3.805  -0.830  -1.064  1.00  0.00    +0.000 OA
ATOM     11  H   UNL     1       4.706  -0.885  -1.410  1.00  0.00    +0.000 HD
ENDBRANCH   5  10
BRANCH   1  12
ATOM     12  C   UNL     1       1.525  -2.806   0.740  1.00  0.00    +0.000 C 
BRANCH  12  13
ATOM     13  O   UNL     1       2.314  -3.969   0.489  1.00  0.00    +0.000 OA
ATOM     14  H   UNL     1       3.219  -3.756   0.750  1.00  0.00    +0.000 HD
ENDBRANCH  12  13
ENDBRANCH   1  12
TORSDOF 5
ENDMDL
