MODEL 1
REMARK VINA RESULT:    -6.060      0.000      0.000
REMARK INTER + INTRA:          -7.553
REMARK INTER:                  -7.300
REMARK INTRA:                  -0.253
REMARK UNBOUND:                -0.253
REMARK  Name = GAL
REMARK  6 active torsions:
REMARK  status: ('A' for Active; 'I' for Inactive)
REMARK    1  A    between atoms: C_1  and  O_7
REMARK    2  A    between atoms: C_2  and  O_8
REMARK    3  A    between atoms: C_3  and  O_9
REMARK    4  A    between atoms: C_4  and  O_10
REMARK    5  A    between atoms: C_5  and  C_6
REMARK    6  A    between atoms: C_6  and  O_12
REMARK                            x       y       z     vdW  Elec       q    Type
REMARK                         _______ _______ _______ _____ _____    ______ ____
ROOT
ATOM      1  C   UNL     1       3.827  -1.297   2.131  1.00  0.00    +0.000 C 
ATOM      2  C   UNL     1       2.382  -1.558   1.698  1.00  0.00    +0.000 C 
ATOM      3  C   UNL     1       2.304  -2.919   1.002  1.00  0.00    +0.000 C 
ATOM      4  C   UNL     1       3.275  -2.932  -0.182  1.00  0.00    +0.000 C 
ATOM      5  C   UNL     1       4.687  -2.618   0.322  1.00  0.00    +0.000 C 
ATOM      6  O   UNL     1       4.683  -1.353   0.987  1.00  0.00    +0.000 OA
ENDROOT
BRANCH   1   7
ATOM      7  O   UNL     1       3.918  -0.003   2.731  1.00  0.00    +0.000 OA
ATOM      8  H   UNL     1       3.564   0.039   3.630  1.00  0.00    +0.000 HD
ENDBRANCH   1   7
BRANCH   2   9
ATOM      9  O   UNL     1       1.533  -1.559   2.847  1.00  0.00    +0.000 OA
ATOM     10  H   UNL     1       1.603  -2.357   3.389  1.00  0.00    +0.000 HD
ENDBRANCH   2   9
BRANCH   3  11
ATOM     11  O   UNL     1       0.973  -3.139   0.529  1.00  0.00    +0.000 OA
ATOM     12  H   UNL     1       0.926  -3.427  -0.393  1.00  0.00    +0.000 HD
ENDBRANCH   3  11
BRANCH   4  13
ATOM     13  O   UNL     1       2.880  -1.945  -1.136  1.00  0.00    +0.000 OA
ATOM     14  H   UNL     1       1.926  -1.918  -1.301  1.00  0.00    +0.000 HD
ENDBRANCH   4  13
BRANCH   5  15
ATOM     15  C   UNL     1       5.653  -2.569  -0.862  1.00  0.00    +0.000 C 
BRANCH  15  16
ATOM     16  O   UNL     1       5.262  -3.539  -1.836  1.00  0.00    +0.000 OA
ATOM     17  H   UNL     1       5.787  -3.515  -2.648  1.00  0.00    +0.000 HD
ENDBRANCH  15  16
ENDBRANCH   5  15
TORSDOF 6
ENDMDL
MODEL 2
REMARK VINA RESULT:    -5.779      1.533      4.257
REMARK INTER + INTRA:          -7.214
REMARK INTER:                  -7.066
REMARK INTRA:                  -0.148
REMARK UNBOUND:                -0.253
REMARK  Name = GAL
REMARK  6 active torsions:
REMARK  status: ('A' for Active; 'I' for Inactive)
REMARK    1  A    between atoms: C_1  and  O_7
REMARK    2  A    between atoms: C_2  and  O_8
REMARK    3  A    between atoms: C_3  and  O_9
REMARK    4  A    between atoms: C_4  and  O_10
REMARK    5  A    between atoms: C_5  and  C_6
REMARK    6  A    between atoms: C_6  and  O_12
REMARK                            x       y       z     vdW  Elec       q    Type
REMARK                         _______ _______ _______ _____ _____    ______ ____
ROOT
ATOM      1  C   UNL     1       2.814  -1.655  -0.298  1.00  0.00    +0.000 C 
ATOM      2  C   UNL     1       4.267  -1.253  -0.030  1.00  0.00    +0.000 C 
ATOM      3  C   UNL     1       4.856  -2.176   1.040  1.00  0.00    +0.000 C 
ATOM      4  C   UNL     1       3.990  -2.095   2.300  1.00  0.00    +0.000 C 
ATOM      5  C   UNL     1       2.548  -2.466   1.944  1.00  0.00    +0.000 C 
ATOM      6  O   UNL     1       2.071  -1.589   0.921  1.00  0.00    +0.000 OA
ENDROOT
BRANCH   1   7
ATOM      7  O   UNL     1       2.241  -0.763  -1.255  1.00  0.00    +0.000 OA
ATOM      8  H   UNL     1       2.440   0.169  -1.092  1.00  0.00    +0.000 HD
ENDBRANCH   1   7
BRANCH   2   9
ATOM      9  O   UNL     1       5.025  -1.374  -1.236  1.00  0.00    +0.000 OA
ATOM     10  H   UNL     1       4.757  -2.113  -1.798  1.00  0.00    +0.000 HD
ENDBRANCH   2   9
BRANCH   3  11
ATOM     11  O   UNL     1       6.189  -1.761   1.349  1.00  0.00    +0.000 OA
ATOM     12  H   UNL     1       6.597  -2.258   2.071  1.00  0.00    +0.000 HD
ENDBRANCH   3  11
BRANCH   4  13
ATOM     13  O   UNL     1       4.026  -0.766   2.821  1.00  0.00    +0.000 OA
ATOM     14  H   UNL     1       4.084  -0.079   2.142  1.00  0.00    +0.000 HD
ENDBRANCH   4  13
BRANCH   5  15
ATOM     15  C   UNL     1       1.664  -2.330   3.185  1.00  0.00    +0.000 C 
BRANCH  15  16
ATOM     16  O   UNL     1       2.221  -3.101   4.253  1.00  0.00    +0.000 OA
ATOM     17  H   UNL     1       1.936  -2.817   5.132  1.00  0.00    +0.000 HD
ENDBRANCH  15  16
ENDBRANCH   5  15
TORSDOF 6
ENDMDL
MODEL 3
REMARK VINA RESULT:    -5.016      1.514      3.629
REMARK INTER + INTRA:          -6.296
REMARK INTER:                  -6.144
REMARK INTRA:                  -0.152
REMARK UNBOUND:                -0.253
REMARK  Name = GAL
REMARK  6 active torsions:
REMARK  status: ('A' for Active; 'I' for Inactive)
REMARK    1  A    between atoms: C_1  and  O_7
REMARK    2  A    between atoms: C_2  and  O_8
REMARK    3  A    between atoms: C_3  and  O_9
REMARK    4  A    between atoms: C_4  and  O_10
REMARK    5  A    between atoms: C_5  and  C_6
REMARK    6  A    between atoms: C_6  and  O_12
REMARK                            x       y       z     vdW  Elec       q    Type
REMARK                         _______ _______ _______ _____ _____    ______ ____
ROOT
ATOM      1  C   UNL     1       4.550  -1.391   1.589  1.00  0.00    +0.000 C 
ATOM      2  C   UNL     1       4.227  -1.890   0.178  1.00  0.00    +0.000 C 
ATOM      3  C   UNL     1       2.779  -1.529  -0.164  1.00  0.00    +0.000 C 
ATOM      4  C   UNL     1       1.851  -2.135   0.892  1.00  0.00    +0.000 C 
ATOM      5  C   UNL     1       2.264  -1.627   2.276  1.00  0.00    +0.000 C 
ATOM      6  O   UNL     1       3.631  -1.968   2.519  1.00  0.00    +0.000 OA
ENDROOT
BRANCH   1   7
ATOM      7  O   UNL     1       5.882  -1.773   1.937  1.00  0.00    +0.000 OA
ATOM      8  H   UNL     1       6.413  -1.055   2.306  1.00  0.00    +0.000 HD
ENDBRANCH   1   7
BRANCH   2   9
ATOM      9  O   UNL     1       5.109  -1.269  -0.760  1.00  0.00    +0.000 OA
ATOM     10  H   UNL     1       6.038  -1.275  -0.492  1.00  0.00    +0.000 HD
ENDBRANCH   2   9
BRANCH   3  11
ATOM     11  O   UNL     1       2.446  -2.055  -1.451  1.00  0.00    +0.000 OA
ATOM     12  H   UNL     1       2.766  -1.519  -2.189  1.00  0.00    +0.000 HD
ENDBRANCH   3  11
BRANCH   4  13
ATOM     13  O   UNL     1       1.952  -3.560   0.857  1.00  0.00    +0.000 OA
ATOM     14  H   UNL     1       2.733  -3.887   0.388  1.00  0.00    +0.000 HD
ENDBRANCH   4  13
BRANCH   5  15
ATOM     15  C   UNL     1       1.379  -2.275   3.343  1.00  0.00    +0.000 C 
BRANCH  15  16
ATOM     16  O   UNL     1       2.163  -3.175   4.129  1.00  0.00    +0.000 OA
ATOM     17  H   UNL     1       1.989  -3.120   5.079  1.00  0.00    +0.000 HD
ENDBRANCH  15  16
ENDBRANCH   5  15
TORSDOF 6
ENDMDL
MODEL 4
REMARK VINA RESULT:    -4.838      1.383      3.579
REMARK INTER + INTRA:          -6.082
REMARK INTER:                  -5.844
REMARK INTRA:                  -0.238
REMARK UNBOUND:                -0.253
REMARK  Name = GAL
REMARK  6 active torsions:
REMARK  status: ('A' for Active; 'I' for Inactive)
REMARK    1  A    between atoms: C_1  and  O_7
REMARK    2  A    between atoms: C_2  and  O_8
REMARK    3  A    between atoms: C_3  and  O_9
REMARK    4  A    between atoms: C_4  and  O_10
REMARK    5  A    between atoms: C_5  and  C_6
REMARK    6  A    between atoms: C_6  and  O_12
REMARK                            x       y       z     vdW  Elec       q    Type
REMARK                         _______ _______ _______ _____ _____    ______ ____
ROOT
ATOM      1  C   UNL     1       4.541  -2.267  -0.299  1.00  0.00    +0.000 C 
ATOM      2  C   UNL     1       3.039  -2.339  -0.009  1.00  0.00    +0.000 C 
ATOM      3  C   UNL     1       2.675  -1.276   1.031  1.00  0.00    +0.000 C 
ATOM      4  C   UNL     1       3.520  -1.498   2.289  1.00  0.00    +0.000 C 
ATOM      5  C   UNL     1       5.004  -1.457   1.912  1.00  0.00    +0.000 C 
ATOM      6  O   UNL     1       5.268  -2.450   0.917  1.00  0.00    +0.000 OA
ENDROOT
BRANCH   1   7
ATOM      7  O   UNL     1       4.897  -3.293  -1.227  1.00  0.00    +0.000 OA
ATOM      8  H   UNL     1       4.458  -4.139  -1.065  1.00  0.00    +0.000 HD
ENDBRANCH   1   7
BRANCH   2   9
ATOM      9  O   UNL     1       2.309  -2.099  -1.214  1.00  0.00    +0.000 OA
ATOM     10  H   UNL     1       2.851  -2.116  -2.014  1.00  0.00    +0.000 HD
ENDBRANCH   2   9
BRANCH   3  11
ATOM     11  O   UNL     1       1.289  -1.384   1.362  1.00  0.00    +0.000 OA
ATOM     12  H   UNL     1       0.921  -2.269   1.228  1.00  0.00    +0.000 HD
ENDBRANCH   3  11
BRANCH   4  13
ATOM     13  O   UNL     1       3.207  -2.770   2.856  1.00  0.00    +0.000 OA
ATOM     14  H   UNL     1       2.394  -3.166   2.511  1.00  0.00    +0.000 HD
ENDBRANCH   4  13
BRANCH   5  15
ATOM     15  C   UNL     1       5.854  -1.738   3.152  1.00  0.00    +0.000 C 
BRANCH  15  16
ATOM     16  O   UNL     1       5.307  -1.038   4.272  1.00  0.00    +0.000 OA
ATOM     17  H   UNL     1       4.450  -0.625   4.096  1.00  0.00    +0.000 HD
ENDBRANCH  15  16
ENDBRANCH   5  15
TORSDOF 6
ENDMDL
MODEL 5
REMARK VINA RESULT:    -4.691      1.472      3.411
REMARK INTER + INTRA:          -5.904
REMARK INTER:                  -5.874
REMARK INTRA:                  -0.029
REMARK UNBOUND:                -0.253
REMARK  Name = GAL
REMARK  6 active torsions:
REMARK  status: ('A' for Active; 'I' for Inactive)
REMARK    1  A    between atoms: C_1  and  O_7
REMARK    2  A    between atoms: C_2  and  O_8
REMARK    3  A    between atoms: C_3  and  O_9
REMARK    4  A    between atoms: C_4  and  O_10
REMARK    5  A    between atoms: C_5  and  C_6
REMARK    6  A    between atoms: C_6  and  O_12
REMARK                            x       y       z     vdW  Elec       q    Type
REMARK                         _______ _______ _______ _____ _____    ______ ____
ROOT
ATOM      1  C   UNL     1       2.297  -1.793   1.873  1.00  0.00    +0.000 C 
ATOM      2  C   UNL     1       2.729  -1.931   0.411  1.00  0.00    +0.000 C 
ATOM      3  C   UNL     1       4.004  -2.776   0.340  1.00  0.00    +0.000 C 
ATOM      4  C   UNL     1       5.085  -2.121   1.205  1.00  0.00    +0.000 C 
ATOM      5  C   UNL     1       4.564  -1.976   2.637  1.00  0.00    +0.000 C 
ATOM      6  O   UNL     1       3.359  -1.206   2.628  1.00  0.00    +0.000 OA
ENDROOT
BRANCH   1   7
ATOM      7  O   UNL     1       1.139  -0.959   1.951  1.00  0.00    +0.000 OA
ATOM      8  H   UNL     1       0.339  -1.424   2.229  1.00  0.00    +0.000 HD
ENDBRANCH   1   7
BRANCH   2   9
ATOM      9  O   UNL     1       1.691  -2.570  -0.335  1.00  0.00    +0.000 OA
ATOM     10  H   UNL     1       0.895  -2.760   0.180  1.00  0.00    +0.000 HD
ENDBRANCH   2   9
BRANCH   3  11
ATOM     11  O   UNL     1       4.455  -2.849  -1.015  1.00  0.00    +0.000 OA
ATOM     12  H   UNL     1       3.876  -3.363  -1.595  1.00  0.00    +0.000 HD
ENDBRANCH   3  11
BRANCH   4  13
ATOM     13  O   UNL     1       5.402  -0.831   0.679  1.00  0.00    +0.000 OA
ATOM     14  H   UNL     1       4.763  -0.143   0.914  1.00  0.00    +0.000 HD
ENDBRANCH   4  13
BRANCH   5  15
ATOM     15  C   UNL     1       5.615  -1.268   3.494  1.00  0.00    +0.000 C 
BRANCH  15  16
ATOM     16  O   UNL     1       5.365  -1.540   4.874  1.00  0.00    +0.000 OA
ATOM     17  H   UNL     1       4.449  -1.390   5.145  1.00  0.00    +0.000 HD
ENDBRANCH  15  16
ENDBRANCH   5  15
TORSDOF 6
ENDMDL
MODEL 6
REMARK VINA RESULT:    -4.650      0.940      2.699
REMARK INTER + INTRA:          -5.855
REMARK INTER:                  -5.612
REMARK INTRA:                  -0.243
REMARK UNBOUND:                -0.253
REMARK  Name = GAL
REMARK  6 active torsions:
REMARK  status: ('A' for Active; 'I' for Inactive)
REMARK    1  A    between atoms: C_1  and  O_7
REMARK    2  A    between atoms: C_2  and  O_8
REMARK    3  A    between atoms: C_3  and  O_9
REMARK    4  A    between atoms: C_4  and  O_10
REMARK    5  A    between atoms: C_5  and  C_6
REMARK    6  A    between atoms: C_6  and  O_12
REMARK                            x       y       z     vdW  Elec       q    Type
REMARK                         _______ _______ _______ _____ _____    ______ ____
ROOT
ATOM      1  C   UNL     1       1.961  -2.041   0.445  1.00  0.00    +0.000 C 
ATOM      2  C   UNL     1       2.504  -1.774   1.852  1.00  0.00    +0.000 C 
ATOM      3  C   UNL     1       3.700  -0.823   1.758  1.00  0.00    +0.000 C 
ATOM      4  C   UNL     1       4.756  -1.438   0.836  1.00  0.00    +0.000 C 
ATOM      5  C   UNL     1       4.128  -1.718  -0.533  1.00  0.00    +0.000 C 
ATOM      6  O   UNL     1       3.002  -2.583  -0.370  1.00  0.00    +0.000 OA
ENDROOT
BRANCH   1   7
ATOM      7  O   UNL     1       0.880  -2.973   0.520  1.00  0.00    +0.000 OA
ATOM      8  H   UNL     1       0.579  -3.153   1.421  1.00  0.00    +0.000 HD
ENDBRANCH   1   7
BRANCH   2   9
ATOM      9  O   UNL     1       1.481  -1.179   2.653  1.00  0.00    +0.000 OA
ATOM     10  H   UNL     1       1.240  -1.697   3.433  1.00  0.00    +0.000 HD
ENDBRANCH   2   9
BRANCH   3  11
ATOM     11  O   UNL     1       4.259  -0.626   3.059  1.00  0.00    +0.000 OA
ATOM     12  H   UNL     1       4.330  -1.436   3.583  1.00  0.00    +0.000 HD
ENDBRANCH   3  11
BRANCH   4  13
ATOM     13  O   UNL     1       5.231  -2.661   1.401  1.00  0.00    +0.000 OA
ATOM     14  H   UNL     1       4.574  -3.371   1.411  1.00  0.00    +0.000 HD
ENDBRANCH   4  13
BRANCH   5  15
ATOM     15  C   UNL     1       5.160  -2.387  -1.441  1.00  0.00    +0.000 C 
BRANCH  15  16
ATOM     16  O   UNL     1       4.933  -3.798  -1.460  1.00  0.00    +0.000 OA
ATOM     17  H   UNL     1       5.690  -4.322  -1.165  1.00  0.00    +0.000 HD
ENDBRANCH  15  16
ENDBRANCH   5  15
TORSDOF 6
ENDMDL
MODEL 7
REMARK VINA RESULT:    -4.346      9.770     11.503
REMARK INTER + INTRA:          -5.489
REMARK INTER:                  -5.235
REMARK INTRA:                  -0.254
REMARK UNBOUND:                -0.253
REMARK  Name = GAL
REMARK  6 active torsions:
REMARK  status: ('A' for Active; 'I' for Inactive)
REMARK    1  A    between atoms: C_1  and  O_7
REMARK    2  A    between atoms: C_2  and  O_8
REMARK    3  A    between atoms: C_3  and  O_9
REMARK    4  A    between atoms: C_4  and  O_10
REMARK    5  A    between atoms: C_5  and  C_6
REMARK    6  A    between atoms: C_6  and  O_12
REMARK                            x       y       z     vdW  Elec       q    Type
REMARK                         _______ _______ _______ _____ _____    ______ ____
ROOT
ATOM      1  C   UNL     1      14.989   1.360   3.662  1.00  0.00    +0.000 C 
ATOM      2  C   UNL     1      14.221   0.089   3.291  1.00  0.00    +0.000 C 
ATOM      3  C   UNL     1      12.809   0.468   2.836  1.00  0.00    +0.000 C 
ATOM      4  C   UNL     1      12.120   1.257   3.953  1.00  0.00    +0.000 C 
ATOM      5  C   UNL     1      12.968   2.485   4.299  1.00  0.00    +0.000 C 
ATOM      6  O   UNL     1      14.278   2.063   4.683  1.00  0.00    +0.000 OA
ENDROOT
BRANCH   1   7
ATOM      7  O   UNL     1      16.289   1.009   4.140  1.00  0.00    +0.000 OA
ATOM      8  H   UNL     1      17.010   1.474   3.695  1.00  0.00    +0.000 HD
ENDBRANCH   1   7
BRANCH   2   9
ATOM      9  O   UNL     1      14.899  -0.586   2.230  1.00  0.00    +0.000 OA
ATOM     10  H   UNL     1      15.434  -0.006   1.671  1.00  0.00    +0.000 HD
ENDBRANCH   2   9
BRANCH   3  11
ATOM     11  O   UNL     1      12.060  -0.718   2.558  1.00  0.00    +0.000 OA
ATOM     12  H   UNL     1      11.573  -0.688   1.723  1.00  0.00    +0.000 HD
ENDBRANCH   3  11
BRANCH   4  13
ATOM     13  O   UNL     1      11.984   0.430   5.109  1.00  0.00    +0.000 OA
ATOM     14  H   UNL     1      11.186  -0.118   5.110  1.00  0.00    +0.000 HD
ENDBRANCH   4  13
BRANCH   5  15
ATOM     15  C   UNL     1      12.317   3.246   5.454  1.00  0.00    +0.000 C 
BRANCH  15  16
ATOM     16  O   UNL     1      10.896   3.115   5.370  1.00  0.00    +0.000 OA
ATOM     17  H   UNL     1      10.601   2.376   4.821  1.00  0.00    +0.000 HD
ENDBRANCH  15  16
ENDBRANCH   5  15
TORSDOF 6
ENDMDL
MODEL 8
REMARK VINA RESULT:    -4.272     12.270     14.512
REMARK INTER + INTRA:          -5.399
REMARK INTER:                  -5.370
REMARK INTRA:                  -0.029
REMARK UNBOUND:                -0.253
REMARK  Name = GAL
REMARK  6 active torsions:
REMARK  status: ('A' for Active; 'I' for Inactive)
REMARK    1  A    between atoms: C_1  and  O_7
REMARK    2  A    between atoms: C_2  and  O_8
REMARK    3  A    between atoms: C_3  and  O_9
REMARK    4  A    between atoms: C_4  and  O_10
REMARK    5  A    between atoms: C_5  and  C_6
REMARK    6  A    between atoms: C_6  and  O_12
REMARK                            x       y       z     vdW  Elec       q    Type
REMARK                         _______ _______ _______ _____ _____    ______ ____
ROOT
ATOM      1  C   UNL     1      -7.383  -8.622  -0.021  1.00  0.00    +0.000 C 
ATOM      2  C   UNL     1      -7.504  -9.887  -0.875  1.00  0.00    +0.000 C 
ATOM      3  C   UNL     1      -8.944 -10.403  -0.809  1.00  0.00    +0.000 C 
ATOM      4  C   UNL     1      -9.318 -10.653   0.655  1.00  0.00    +0.000 C 
ATOM      5  C   UNL     1      -9.128  -9.359   1.451  1.00  0.00    +0.000 C 
ATOM      6  O   UNL     1      -7.775  -8.917   1.321  1.00  0.00    +0.000 OA
ENDROOT
BRANCH   1   7
ATOM      7  O   UNL     1      -6.028  -8.168  -0.033  1.00  0.00    +0.000 OA
ATOM      8  H   UNL     1      -5.779  -7.656   0.748  1.00  0.00    +0.000 HD
ENDBRANCH   1   7
BRANCH   2   9
ATOM      9  O   UNL     1      -7.168  -9.582  -2.230  1.00  0.00    +0.000 OA
ATOM     10  H   UNL     1      -7.748  -8.928  -2.643  1.00  0.00    +0.000 HD
ENDBRANCH   2   9
BRANCH   3  11
ATOM     11  O   UNL     1      -9.050 -11.624  -1.545  1.00  0.00    +0.000 OA
ATOM     12  H   UNL     1      -8.618 -12.377  -1.119  1.00  0.00    +0.000 HD
ENDBRANCH   3  11
BRANCH   4  13
ATOM     13  O   UNL     1      -8.478 -11.674   1.195  1.00  0.00    +0.000 OA
ATOM     14  H   UNL     1      -8.882 -12.553   1.201  1.00  0.00    +0.000 HD
ENDBRANCH   4  13
BRANCH   5  15
ATOM     15  C   UNL     1      -9.442  -9.616   2.926  1.00  0.00    +0.000 C 
BRANCH  15  16
ATOM     16  O   UNL     1      -9.745  -8.377   3.571  1.00  0.00    +0.000 OA
ATOM     17  H   UNL     1     -10.360  -7.818   3.078  1.00  0.00    +0.000 HD
ENDBRANCH  15  16
ENDBRANCH   5  15
TORSDOF 6
ENDMDL
