MODEL 1
REMARK VINA RESULT:    -6.151      0.000      0.000
REMARK INTER + INTRA:          -6.871
REMARK INTER:                  -6.871
REMARK INTRA:                   0.000
REMARK UNBOUND:                 0.000
REMARK  Name = ARA
REMARK  4 active torsions:
REMARK  status: ('A' for Active; 'I' for Inactive)
REMARK    1  A    between atoms: C_1  and  O_6
REMARK    2  A    between atoms: C_2  and  O_7
REMARK    3  A    between atoms: C_3  and  O_8
REMARK    4  A    between atoms: C_4  and  O_9
REMARK                            x       y       z     vdW  Elec       q    Type
REMARK                         _______ _______ _______ _____ _____    ______ ____
ROOT
ATOM      1  C   UNL     1       4.194  -2.928  -0.002  1.00  0.00    +0.000 C 
ATOM      2  C   UNL     1       4.323  -1.527   0.596  1.00  0.00    +0.000 C 
ATOM      3  C   UNL     1       3.880  -1.565   2.064  1.00  0.00    +0.000 C 
ATOM      4  C   UNL     1       2.479  -2.180   2.135  1.00  0.00    +0.000 C 
ATOM      5  C   UNL     1       2.490  -3.533   1.421  1.00  0.00    +0.000 C 
ATOM      6  O   UNL     1       2.835  -3.354   0.050  1.00  0.00    +0.000 OA
ENDROOT
BRANCH   1   7
ATOM      7  O   UNL     1       4.635  -2.908  -1.361  1.00  0.00    +0.000 OA
ATOM      8  H   UNL     1       4.941  -2.009  -1.542  1.00  0.00    +0.000 HD
ENDBRANCH   1   7
BRANCH   2   9
ATOM      9  O   UNL     1       5.683  -1.095   0.516  1.00  0.00    +0.000 OA
ATOM     10  H   UNL     1       6.130  -1.432   1.304  1.00  0.00    +0.000 HD
ENDBRANCH   2   9
BRANCH   3  11
ATOM     11  O   UNL     1       3.854  -0.237   2.593  1.00  0.00    +0.000 OA
ATOM     12  H   UNL     1       3.441  -0.292   3.465  1.00  0.00    +0.000 HD
ENDBRANCH   3  11
BRANCH   4  13
ATOM     13  O   UNL     1       1.542  -1.311   1.497  1.00  0.00    +0.000 OA
ATOM     14  H   UNL     1       1.890  -0.413   1.584  1.00  0.00    +0.000 HD
ENDBRANCH   4  13
TORSDOF 4
ENDMDL
MODEL 2
REMARK VINA RESULT:    -5.994      1.332      3.404
REMARK INTER + INTRA:          -6.695
REMARK INTER:                  -6.695
REMARK INTRA:                   0.000
REMARK UNBOUND:                 0.000
REMARK  Name = ARA
REMARK  4 active torsions:
REMARK  status: ('A' for Active; 'I' for Inactive)
REMARK    1  A    between atoms: C_1  and  O_6
REMARK    2  A    between atoms: C_2  and  O_7
REMARK    3  A    between atoms: C_3  and  O_8
REMARK    4  A    between atoms: C_4  and  O_9
REMARK                            x       y       z     vdW  Elec       q    Type
REMARK                         _______ _______ _______ _____ _____    ______ ____
ROOT
ATOM      1  C   UNL     1       4.526  -1.829   2.214  1.00  0.00    +0.000 C 
ATOM      2  C   UNL     1       3.036  -1.877   1.876  1.00  0.00    +0.000 C 
ATOM      3  C   UNL     1       2.819  -2.840   0.702  1.00  0.00    +0.000 C 
ATOM      4  C   UNL     1       3.738  -2.421  -0.450  1.00  0.00    +0.000 C 
ATOM      5  C   UNL     1       5.176  -2.332   0.065  1.00  0.00    +0.000 C 
ATOM      6  O   UNL     1       5.262  -1.348   1.092  1.00  0.00    +0.000 OA
ENDROOT
BRANCH   1   7
ATOM      7  O   UNL     1       4.733  -0.958   3.328  1.00  0.00    +0.000 OA
ATOM      8  H   UNL     1       5.689  -0.886   3.453  1.00  0.00    +0.000 HD
ENDBRANCH   1   7
BRANCH   2   9
ATOM      9  O   UNL     1       2.301  -2.334   3.014  1.00  0.00    +0.000 OA
ATOM     10  H   UNL     1       2.944  -2.716   3.626  1.00  0.00    +0.000 HD
ENDBRANCH   2   9
BRANCH   3  11
ATOM     11  O   UNL     1       1.454  -2.783   0.280  1.00  0.00    +0.000 OA
ATOM     12  H   UNL     1       1.127  -3.693   0.269  1.00  0.00    +0.000 HD
ENDBRANCH   3  11
BRANCH   4  13
ATOM     13  O   UNL     1       3.328  -1.146  -0.947  1.00  0.00    +0.000 OA
ATOM     14  H   UNL     1       4.109  -0.736  -1.343  1.00  0.00    +0.000 HD
ENDBRANCH   4  13
TORSDOF 4
ENDMDL
MODEL 3
REMARK VINA RESULT:    -5.898      1.038      3.666
REMARK INTER + INTRA:          -6.588
REMARK INTER:                  -6.588
REMARK INTRA:                   0.000
REMARK UNBOUND:                 0.000
REMARK  Name = ARA
REMARK  4 active torsions:
REMARK  status: ('A' for Active; 'I' for Inactive)
REMARK    1  A    between atoms: C_1  and  O_6
REMARK    2  A    between atoms: C_2  and  O_7
REMARK    3  A    between atoms: C_3  and  O_8
REMARK    4  A    between atoms: C_4  and  O_9
REMARK                            x       y       z     vdW  Elec       q    Type
REMARK                         _______ _______ _______ _____ _____    ______ ____
ROOT
ATOM      1  C   UNL     1       2.758  -1.695   2.233  1.00  0.00    +0.000 C 
ATOM      2  C   UNL     1       2.728  -1.932   0.723  1.00  0.00    +0.000 C 
ATOM      3  C   UNL     1       3.989  -2.703   0.312  1.00  0.00    +0.000 C 
ATOM      4  C   UNL     1       5.215  -1.946   0.830  1.00  0.00    +0.000 C 
ATOM      5  C   UNL     1       5.057  -1.708   2.333  1.00  0.00    +0.000 C 
ATOM      6  O   UNL     1       3.899  -0.913   2.577  1.00  0.00    +0.000 OA
ENDROOT
BRANCH   1   7
ATOM      7  O   UNL     1       1.571  -1.004   2.629  1.00  0.00    +0.000 OA
ATOM      8  H   UNL     1       1.215  -1.475   3.394  1.00  0.00    +0.000 HD
ENDBRANCH   1   7
BRANCH   2   9
ATOM      9  O   UNL     1       1.567  -2.693   0.381  1.00  0.00    +0.000 OA
ATOM     10  H   UNL     1       1.324  -2.442  -0.520  1.00  0.00    +0.000 HD
ENDBRANCH   2   9
BRANCH   3  11
ATOM     11  O   UNL     1       4.047  -2.804  -1.113  1.00  0.00    +0.000 OA
ATOM     12  H   UNL     1       3.440  -2.138  -1.465  1.00  0.00    +0.000 HD
ENDBRANCH   3  11
BRANCH   4  13
ATOM     13  O   UNL     1       5.322  -0.691   0.155  1.00  0.00    +0.000 OA
ATOM     14  H   UNL     1       6.142  -0.279   0.460  1.00  0.00    +0.000 HD
ENDBRANCH   4  13
TORSDOF 4
ENDMDL
MODEL 4
REMARK VINA RESULT:    -5.848      1.242      2.261
REMARK INTER + INTRA:          -6.532
REMARK INTER:                  -6.532
REMARK INTRA:                   0.000
REMARK UNBOUND:                 0.000
REMARK  Name = ARA
REMARK  4 active torsions:
REMARK  status: ('A' for Active; 'I' for Inactive)
REMARK    1  A    between atoms: C_1  and  O_6
REMARK    2  A    between atoms: C_2  and  O_7
REMARK    3  A    between atoms: C_3  and  O_8
REMARK    4  A    between atoms: C_4  and  O_9
REMARK                            x       y       z     vdW  Elec       q    Type
REMARK                         _______ _______ _______ _____ _____    ______ ____
ROOT
ATOM      1  C   UNL     1       2.683  -1.683  -0.033  1.00  0.00    +0.000 C 
ATOM      2  C   UNL     1       4.180  -1.379   0.022  1.00  0.00    +0.000 C 
ATOM      3  C   UNL     1       4.811  -2.175   1.171  1.00  0.00    +0.000 C 
ATOM      4  C   UNL     1       4.035  -1.874   2.457  1.00  0.00    +0.000 C 
ATOM      5  C   UNL     1       2.548  -2.141   2.218  1.00  0.00    +0.000 C 
ATOM      6  O   UNL     1       2.063  -1.285   1.187  1.00  0.00    +0.000 OA
ENDROOT
BRANCH   1   7
ATOM      7  O   UNL     1       2.093  -0.970  -1.122  1.00  0.00    +0.000 OA
ATOM      8  H   UNL     1       2.615  -1.178  -1.908  1.00  0.00    +0.000 HD
ENDBRANCH   1   7
BRANCH   2   9
ATOM      9  O   UNL     1       4.791  -1.756  -1.215  1.00  0.00    +0.000 OA
ATOM     10  H   UNL     1       5.413  -1.054  -1.444  1.00  0.00    +0.000 HD
ENDBRANCH   2   9
BRANCH   3  11
ATOM     11  O   UNL     1       6.179  -1.790   1.328  1.00  0.00    +0.000 OA
ATOM     12  H   UNL     1       6.274  -0.922   0.912  1.00  0.00    +0.000 HD
ENDBRANCH   3  11
BRANCH   4  13
ATOM     13  O   UNL     1       4.223  -0.505   2.819  1.00  0.00    +0.000 OA
ATOM     14  H   UNL     1       4.080  -0.445   3.773  1.00  0.00    +0.000 HD
ENDBRANCH   4  13
TORSDOF 4
ENDMDL
MODEL 5
REMARK VINA RESULT:    -5.778      1.127      2.884
REMARK INTER + INTRA:          -6.454
REMARK INTER:                  -6.454
REMARK INTRA:                   0.000
REMARK UNBOUND:                 0.000
REMARK  Name = ARA
REMARK  4 active torsions:
REMARK  status: ('A' for Active; 'I' for Inactive)
REMARK    1  A    between atoms: C_1  and  O_6
REMARK    2  A    between atoms: C_2  and  O_7
REMARK    3  A    between atoms: C_3  and  O_8
REMARK    4  A    between atoms: C_4  and  O_9
REMARK                            x       y       z     vdW  Elec       q    Type
REMARK                         _______ _______ _______ _____ _____    ______ ____
ROOT
ATOM      1  C   UNL     1       4.019  -1.329   2.277  1.00  0.00    +0.000 C 
ATOM      2  C   UNL     1       4.657  -2.043   1.084  1.00  0.00    +0.000 C 
ATOM      3  C   UNL     1       3.709  -1.952  -0.119  1.00  0.00    +0.000 C 
ATOM      4  C   UNL     1       2.335  -2.482   0.302  1.00  0.00    +0.000 C 
ATOM      5  C   UNL     1       1.873  -1.734   1.554  1.00  0.00    +0.000 C 
ATOM      6  O   UNL     1       2.790  -1.964   2.620  1.00  0.00    +0.000 OA
ENDROOT
BRANCH   1   7
ATOM      7  O   UNL     1       4.910  -1.381   3.393  1.00  0.00    +0.000 OA
ATOM      8  H   UNL     1       4.973  -2.309   3.657  1.00  0.00    +0.000 HD
ENDBRANCH   1   7
BRANCH   2   9
ATOM      9  O   UNL     1       5.902  -1.419   0.763  1.00  0.00    +0.000 OA
ATOM     10  H   UNL     1       6.112  -1.666  -0.147  1.00  0.00    +0.000 HD
ENDBRANCH   2   9
BRANCH   3  11
ATOM     11  O   UNL     1       4.224  -2.740  -1.195  1.00  0.00    +0.000 OA
ATOM     12  H   UNL     1       4.333  -3.638  -0.857  1.00  0.00    +0.000 HD
ENDBRANCH   3  11
BRANCH   4  13
ATOM     13  O   UNL     1       2.427  -3.879   0.586  1.00  0.00    +0.000 OA
ATOM     14  H   UNL     1       1.531  -4.184   0.782  1.00  0.00    +0.000 HD
ENDBRANCH   4  13
TORSDOF 4
ENDMDL
MODEL 6
REMARK VINA RESULT:    -5.706      1.224      3.059
REMARK INTER + INTRA:          -6.374
REMARK INTER:                  -6.374
REMARK INTRA:                   0.000
REMARK UNBOUND:                 0.000
REMARK  Name = ARA
REMARK  4 active torsions:
REMARK  status: ('A' for Active; 'I' for Inactive)
REMARK    1  A    between atoms: C_1  and  O_6
REMARK    2  A    between atoms: C_2  and  O_7
REMARK    3  A    between atoms: C_3  and  O_8
REMARK    4  A    between atoms: C_4  and  O_9
REMARK                            x       y       z     vdW  Elec       q    Type
REMARK                         _______ _______ _______ _____ _____    ______ ____
ROOT
ATOM      1  C   UNL     1       2.471  -1.662   1.981  1.00  0.00    +0.000 C 
ATOM      2  C   UNL     1       3.979  -1.901   2.055  1.00  0.00    +0.000 C 
ATOM      3  C   UNL     1       4.641  -1.320   0.799  1.00  0.00    +0.000 C 
ATOM      4  C   UNL     1       3.946  -1.906  -0.434  1.00  0.00    +0.000 C 
ATOM      5  C   UNL     1       2.439  -1.666  -0.320  1.00  0.00    +0.000 C 
ATOM      6  O   UNL     1       1.932  -2.323   0.839  1.00  0.00    +0.000 OA
ENDROOT
BRANCH   1   7
ATOM      7  O   UNL     1       1.851  -2.173   3.163  1.00  0.00    +0.000 OA
ATOM      8  H   UNL     1       1.068  -2.664   2.878  1.00  0.00    +0.000 HD
ENDBRANCH   1   7
BRANCH   2   9
ATOM      9  O   UNL     1       4.509  -1.259   3.217  1.00  0.00    +0.000 OA
ATOM     10  H   UNL     1       5.375  -0.908   2.972  1.00  0.00    +0.000 HD
ENDBRANCH   2   9
BRANCH   3  11
ATOM     11  O   UNL     1       6.028  -1.665   0.784  1.00  0.00    +0.000 OA
ATOM     12  H   UNL     1       6.190  -2.205   1.569  1.00  0.00    +0.000 HD
ENDBRANCH   3  11
BRANCH   4  13
ATOM     13  O   UNL     1       4.203  -3.310  -0.506  1.00  0.00    +0.000 OA
ATOM     14  H   UNL     1       3.344  -3.748  -0.570  1.00  0.00    +0.000 HD
ENDBRANCH   4  13
TORSDOF 4
ENDMDL
MODEL 7
REMARK VINA RESULT:    -5.509      1.071      1.947
REMARK INTER + INTRA:          -6.153
REMARK INTER:                  -6.153
REMARK INTRA:                   0.000
REMARK UNBOUND:                 0.000
REMARK  Name = ARA
REMARK  4 active torsions:
REMARK  status: ('A' for Active; 'I' for Inactive)
REMARK    1  A    between atoms: C_1  and  O_6
REMARK    2  A    between atoms: C_2  and  O_7
REMARK    3  A    between atoms: C_3  and  O_8
REMARK    4  A    between atoms: C_4  and  O_9
REMARK                            x       y       z     vdW  Elec       q    Type
REMARK                         _______ _______ _______ _____ _____    ______ ____
ROOT
ATOM      1  C   UNL     1       4.860  -2.251   1.225  1.00  0.00    +0.000 C 
ATOM      2  C   UNL     1       3.879  -1.260   1.852  1.00  0.00    +0.000 C 
ATOM      3  C   UNL     1       2.570  -1.990   2.181  1.00  0.00    +0.000 C 
ATOM      4  C   UNL     1       2.071  -2.691   0.913  1.00  0.00    +0.000 C 
ATOM      5  C   UNL     1       3.189  -3.575   0.358  1.00  0.00    +0.000 C 
ATOM      6  O   UNL     1       4.316  -2.771   0.015  1.00  0.00    +0.000 OA
ENDROOT
BRANCH   1   7
ATOM      7  O   UNL     1       6.093  -1.586   0.945  1.00  0.00    +0.000 OA
ATOM      8  H   UNL     1       6.322  -1.794   0.029  1.00  0.00    +0.000 HD
ENDBRANCH   1   7
BRANCH   2   9
ATOM      9  O   UNL     1       4.443  -0.722   3.051  1.00  0.00    +0.000 OA
ATOM     10  H   UNL     1       4.818   0.138   2.821  1.00  0.00    +0.000 HD
ENDBRANCH   2   9
BRANCH   3  11
ATOM     11  O   UNL     1       1.595  -1.047   2.630  1.00  0.00    +0.000 OA
ATOM     12  H   UNL     1       1.732  -0.238   2.119  1.00  0.00    +0.000 HD
ENDBRANCH   3  11
BRANCH   4  13
ATOM     13  O   UNL     1       1.705  -1.712  -0.061  1.00  0.00    +0.000 OA
ATOM     14  H   UNL     1       1.050  -1.136   0.354  1.00  0.00    +0.000 HD
ENDBRANCH   4  13
TORSDOF 4
ENDMDL
MODEL 8
REMARK VINA RESULT:    -5.277      1.323      2.975
REMARK INTER + INTRA:          -5.894
REMARK INTER:                  -5.894
REMARK INTRA:                   0.000
REMARK UNBOUND:                 0.000
REMARK  Name = ARA
REMARK  4 active torsions:
REMARK  status: ('A' for Active; 'I' for Inactive)
REMARK    1  A    between atoms: C_1  and  O_6
REMARK    2  A    between atoms: C_2  and  O_7
REMARK    3  A    between atoms: C_3  and  O_8
REMARK    4  A    between atoms: C_4  and  O_9
REMARK                            x       y       z     vdW  Elec       q    Type
REMARK                         _______ _______ _______ _____ _____    ______ ____
ROOT
ATOM      1  C   UNL     1       1.962  -1.963   0.405  1.00  0.00    +0.000 C 
ATOM      2  C   UNL     1       2.642  -1.981   1.774  1.00  0.00    +0.000 C 
ATOM      3  C   UNL     1       3.755  -0.926   1.796  1.00  0.00    +0.000 C 
ATOM      4  C   UNL     1       4.683  -1.172   0.602  1.00  0.00    +0.000 C 
ATOM      5  C   UNL     1       3.849  -1.215  -0.679  1.00  0.00    +0.000 C 
ATOM      6  O   UNL     1       2.910  -2.285  -0.610  1.00  0.00    +0.000 OA
ENDROOT
BRANCH   1   7
ATOM      7  O   UNL     1       0.902  -2.921   0.388  1.00  0.00    +0.000 OA
ATOM      8  H   UNL     1       1.192  -3.668   0.928  1.00  0.00    +0.000 HD
ENDBRANCH   1   7
BRANCH   2   9
ATOM      9  O   UNL     1       1.680  -1.684   2.790  1.00  0.00    +0.000 OA
ATOM     10  H   UNL     1       2.120  -1.816   3.639  1.00  0.00    +0.000 HD
ENDBRANCH   2   9
BRANCH   3  11
ATOM     11  O   UNL     1       4.494  -1.032   3.015  1.00  0.00    +0.000 OA
ATOM     12  H   UNL     1       5.422  -0.876   2.794  1.00  0.00    +0.000 HD
ENDBRANCH   3  11
BRANCH   4  13
ATOM     13  O   UNL     1       5.361  -2.418   0.773  1.00  0.00    +0.000 OA
ATOM     14  H   UNL     1       4.763  -3.108   0.456  1.00  0.00    +0.000 HD
ENDBRANCH   4  13
TORSDOF 4
ENDMDL
MODEL 9
REMARK VINA RESULT:    -5.006      1.357      2.611
REMARK INTER + INTRA:          -5.592
REMARK INTER:                  -5.592
REMARK INTRA:                   0.000
REMARK UNBOUND:                 0.000
REMARK  Name = ARA
REMARK  4 active torsions:
REMARK  status: ('A' for Active; 'I' for Inactive)
REMARK    1  A    between atoms: C_1  and  O_6
REMARK    2  A    between atoms: C_2  and  O_7
REMARK    3  A    between atoms: C_3  and  O_8
REMARK    4  A    between atoms: C_4  and  O_9
REMARK                            x       y       z     vdW  Elec       q    Type
REMARK                         _______ _______ _______ _____ _____    ______ ____
ROOT
ATOM      1  C   UNL     1       4.681  -1.627   0.571  1.00  0.00    +0.000 C 
ATOM      2  C   UNL     1       3.519  -2.525   0.145  1.00  0.00    +0.000 C 
ATOM      3  C   UNL     1       2.206  -1.924   0.660  1.00  0.00    +0.000 C 
ATOM      4  C   UNL     1       2.334  -1.693   2.169  1.00  0.00    +0.000 C 
ATOM      5  C   UNL     1       3.586  -0.857   2.443  1.00  0.00    +0.000 C 
ATOM      6  O   UNL     1       4.743  -1.558   1.994  1.00  0.00    +0.000 OA
ENDROOT
BRANCH   1   7
ATOM      7  O   UNL     1       5.906  -2.163   0.067  1.00  0.00    +0.000 OA
ATOM      8  H   UNL     1       6.232  -1.541  -0.597  1.00  0.00    +0.000 HD
ENDBRANCH   1   7
BRANCH   2   9
ATOM      9  O   UNL     1       3.480  -2.611  -1.282  1.00  0.00    +0.000 OA
ATOM     10  H   UNL     1       4.376  -2.433  -1.597  1.00  0.00    +0.000 HD
ENDBRANCH   2   9
BRANCH   3  11
ATOM     11  O   UNL     1       1.129  -2.826   0.397  1.00  0.00    +0.000 OA
ATOM     12  H   UNL     1       0.514  -2.364  -0.188  1.00  0.00    +0.000 HD
ENDBRANCH   3  11
BRANCH   4  13
ATOM     13  O   UNL     1       2.443  -2.951   2.837  1.00  0.00    +0.000 OA
ATOM     14  H   UNL     1       2.162  -2.808   3.751  1.00  0.00    +0.000 HD
ENDBRANCH   4  13
TORSDOF 4
ENDMDL
