MODEL 1
REMARK VINA RESULT:    -5.227      0.000      0.000
REMARK INTER + INTRA:          -8.300
REMARK INTER:                  -7.672
REMARK INTRA:                  -0.627
REMARK UNBOUND:                -0.627
REMARK  Name = X9X
REMARK  11 active torsions:
REMARK  status: ('A' for Active; 'I' for Inactive)
REMARK    1  A    between atoms: O_1  and  C_2
REMARK    2  A    between atoms: C_2  and  C_3
REMARK    3  A    between atoms: C_3  and  O_4
REMARK    4  A    between atoms: C_3  and  C_5
REMARK    5  A    between atoms: C_5  and  O_6
REMARK    6  A    between atoms: C_5  and  C_7
REMARK    7  A    between atoms: C_7  and  O_8
REMARK    8  A    between atoms: C_7  and  C_9
REMARK    9  A    between atoms: C_9  and  O_10
REMARK   10  A    between atoms: C_9  and  C_11
REMARK   11  A    between atoms: C_11  and  O_12
REMARK                            x       y       z     vdW  Elec       q    Type
REMARK                         _______ _______ _______ _____ _____    ______ ____
ROOT
ATOM      1  C   UNL     1       2.943  -1.326  -0.289  1.00  0.00    +0.000 C 
ENDROOT
BRANCH   1   2
ATOM      2  O   UNL     1       2.733  -2.011  -1.525  1.00  0.00    +0.000 OA
ATOM      3  H   UNL     1       2.831  -2.972  -1.463  1.00  0.00    +0.000 HD
ENDBRANCH   1   2
BRANCH   1   4
ATOM      4  C   UNL     1       4.314  -1.699   0.276  1.00  0.00    +0.000 C 
BRANCH   4   5
ATOM      5  O   UNL     1       5.187  -0.571   0.194  1.00  0.00    +0.000 OA
ATOM      6  H   UNL     1       5.355  -0.141   1.044  1.00  0.00    +0.000 HD
ENDBRANCH   4   5
BRANCH   4   7
ATOM      7  C   UNL     1       4.901  -2.857  -0.533  1.00  0.00    +0.000 C 
BRANCH   7   8
ATOM      8  O   UNL     1       4.099  -4.025  -0.344  1.00  0.00    +0.000 OA
ATOM      9  H   UNL     1       4.490  -4.680   0.250  1.00  0.00    +0.000 HD
ENDBRANCH   7   8
ENDBRANCH   4   7
ENDBRANCH   1   4
BRANCH   1  10
ATOM     10  C   UNL     1       1.853  -1.727   0.709  1.00  0.00    +0.000 C 
BRANCH  10  11
ATOM     11  O   UNL     1       1.362  -3.028   0.380  1.00  0.00    +0.000 OA
ATOM     12  H   UNL     1       0.587  -3.296   0.893  1.00  0.00    +0.000 HD
ENDBRANCH  10  11
BRANCH  10  13
ATOM     13  C   UNL     1       2.436  -1.743   2.122  1.00  0.00    +0.000 C 
BRANCH  13  14
ATOM     14  O   UNL     1       1.752  -0.786   2.932  1.00  0.00    +0.000 OA
ATOM     15  H   UNL     1       1.946   0.133   2.702  1.00  0.00    +0.000 HD
ENDBRANCH  13  14
BRANCH  13  16
ATOM     16  C   UNL     1       2.266  -3.138   2.728  1.00  0.00    +0.000 C 
BRANCH  16  17
ATOM     17  O   UNL     1       2.189  -3.033   4.152  1.00  0.00    +0.000 OA
ATOM     18  H   UNL     1       2.315  -2.136   4.488  1.00  0.00    +0.000 HD
ENDBRANCH  16  17
ENDBRANCH  13  16
ENDBRANCH  10  13
ENDBRANCH   1  10
TORSDOF 11
ENDMDL
MODEL 2
REMARK VINA RESULT:    -5.175      1.135      4.263
REMARK INTER + INTRA:          -8.223
REMARK INTER:                  -8.002
REMARK INTRA:                  -0.221
REMARK UNBOUND:                -0.627
REMARK  Name = X9X
REMARK  11 active torsions:
REMARK  status: ('A' for Active; 'I' for Inactive)
REMARK    1  A    between atoms: O_1  and  C_2
REMARK    2  A    between atoms: C_2  and  C_3
REMARK    3  A    between atoms: C_3  and  O_4
REMARK    4  A    between atoms: C_3  and  C_5
REMARK    5  A    between atoms: C_5  and  O_6
REMARK    6  A    between atoms: C_5  and  C_7
REMARK    7  A    between atoms: C_7  and  O_8
REMARK    8  A    between atoms: C_7  and  C_9
REMARK    9  A    between atoms: C_9  and  O_10
REMARK   10  A    between atoms: C_9  and  C_11
REMARK   11  A    between atoms: C_11  and  O_12
REMARK                            x       y       z     vdW  Elec       q    Type
REMARK                         _______ _______ _______ _____ _____    ______ ____
ROOT
ATOM      1  C   UNL     1       3.698  -1.164   1.907  1.00  0.00    +0.000 C 
ENDROOT
BRANCH   1   2
ATOM      2  O   UNL     1       4.596  -2.046   2.584  1.00  0.00    +0.000 OA
ATOM      3  H   UNL     1       4.318  -2.276   3.481  1.00  0.00    +0.000 HD
ENDBRANCH   1   2
BRANCH   1   4
ATOM      4  C   UNL     1       2.268  -1.689   2.040  1.00  0.00    +0.000 C 
BRANCH   4   5
ATOM      5  O   UNL     1       1.525  -0.833   2.909  1.00  0.00    +0.000 OA
ATOM      6  H   UNL     1       1.271   0.010   2.509  1.00  0.00    +0.000 HD
ENDBRANCH   4   5
BRANCH   4   7
ATOM      7  C   UNL     1       2.297  -3.104   2.621  1.00  0.00    +0.000 C 
BRANCH   7   8
ATOM      8  O   UNL     1       2.198  -3.037   4.046  1.00  0.00    +0.000 OA
ATOM      9  H   UNL     1       1.952  -3.873   4.463  1.00  0.00    +0.000 HD
ENDBRANCH   7   8
ENDBRANCH   4   7
ENDBRANCH   1   4
BRANCH   1  10
ATOM     10  C   UNL     1       4.078  -1.087   0.426  1.00  0.00    +0.000 C 
BRANCH  10  11
ATOM     11  O   UNL     1       5.437  -0.664   0.304  1.00  0.00    +0.000 OA
ATOM     12  H   UNL     1       5.566   0.286   0.430  1.00  0.00    +0.000 HD
ENDBRANCH  10  11
BRANCH  10  13
ATOM     13  C   UNL     1       3.912  -2.466  -0.215  1.00  0.00    +0.000 C 
BRANCH  13  14
ATOM     14  O   UNL     1       2.988  -2.379  -1.302  1.00  0.00    +0.000 OA
ATOM     15  H   UNL     1       3.197  -1.684  -1.941  1.00  0.00    +0.000 HD
ENDBRANCH  13  14
BRANCH  13  16
ATOM     16  C   UNL     1       5.266  -2.952  -0.736  1.00  0.00    +0.000 C 
BRANCH  16  17
ATOM     17  O   UNL     1       5.063  -3.850  -1.829  1.00  0.00    +0.000 OA
ATOM     18  H   UNL     1       5.878  -4.218  -2.194  1.00  0.00    +0.000 HD
ENDBRANCH  16  17
ENDBRANCH  13  16
ENDBRANCH  10  13
ENDBRANCH   1  10
TORSDOF 11
ENDMDL
MODEL 3
REMARK VINA RESULT:    -5.031      1.131      3.887
REMARK INTER + INTRA:          -8.012
REMARK INTER:                  -7.176
REMARK INTRA:                  -0.835
REMARK UNBOUND:                -0.627
REMARK  Name = X9X
REMARK  11 active torsions:
REMARK  status: ('A' for Active; 'I' for Inactive)
REMARK    1  A    between atoms: O_1  and  C_2
REMARK    2  A    between atoms: C_2  and  C_3
REMARK    3  A    between atoms: C_3  and  O_4
REMARK    4  A    between atoms: C_3  and  C_5
REMARK    5  A    between atoms: C_5  and  O_6
REMARK    6  A    between atoms: C_5  and  C_7
REMARK    7  A    between atoms: C_7  and  O_8
REMARK    8  A    between atoms: C_7  and  C_9
REMARK    9  A    between atoms: C_9  and  O_10
REMARK   10  A    between atoms: C_9  and  C_11
REMARK   11  A    between atoms: C_11  and  O_12
REMARK                            x       y       z     vdW  Elec       q    Type
REMARK                         _______ _______ _______ _____ _____    ______ ____
ROOT
ATOM      1  C   UNL     1       2.204  -2.142   0.750  1.00  0.00    +0.000 C 
ENDROOT
BRANCH   1   2
ATOM      2  O   UNL     1       2.119  -1.011  -0.119  1.00  0.00    +0.000 OA
ATOM      3  H   UNL     1       1.221  -0.809  -0.416  1.00  0.00    +0.000 HD
ENDBRANCH   1   2
BRANCH   1   4
ATOM      4  C   UNL     1       2.038  -1.685   2.200  1.00  0.00    +0.000 C 
BRANCH   4   5
ATOM      5  O   UNL     1       2.901  -0.575   2.452  1.00  0.00    +0.000 OA
ATOM      6  H   UNL     1       2.446   0.205   2.800  1.00  0.00    +0.000 HD
ENDBRANCH   4   5
BRANCH   4   7
ATOM      7  C   UNL     1       2.401  -2.836   3.141  1.00  0.00    +0.000 C 
BRANCH   7   8
ATOM      8  O   UNL     1       1.493  -2.853   4.245  1.00  0.00    +0.000 OA
ATOM      9  H   UNL     1       0.621  -3.212   4.032  1.00  0.00    +0.000 HD
ENDBRANCH   7   8
ENDBRANCH   4   7
ENDBRANCH   1   4
BRANCH   1  10
ATOM     10  C   UNL     1       3.567  -2.816   0.579  1.00  0.00    +0.000 C 
BRANCH  10  11
ATOM     11  O   UNL     1       3.387  -4.126   0.038  1.00  0.00    +0.000 OA
ATOM     12  H   UNL     1       3.682  -4.217  -0.879  1.00  0.00    +0.000 HD
ENDBRANCH  10  11
BRANCH  10  13
ATOM     13  C   UNL     1       4.432  -1.986  -0.371  1.00  0.00    +0.000 C 
BRANCH  13  14
ATOM     14  O   UNL     1       4.920  -0.831   0.315  1.00  0.00    +0.000 OA
ATOM     15  H   UNL     1       5.732  -0.986   0.816  1.00  0.00    +0.000 HD
ENDBRANCH  13  14
BRANCH  13  16
ATOM     16  C   UNL     1       5.613  -2.829  -0.854  1.00  0.00    +0.000 C 
BRANCH  16  17
ATOM     17  O   UNL     1       5.199  -3.647  -1.951  1.00  0.00    +0.000 OA
ATOM     18  H   UNL     1       5.900  -4.206  -2.312  1.00  0.00    +0.000 HD
ENDBRANCH  16  17
ENDBRANCH  13  16
ENDBRANCH  10  13
ENDBRANCH   1  10
TORSDOF 11
ENDMDL
MODEL 4
REMARK VINA RESULT:    -4.893      1.243      2.895
REMARK INTER + INTRA:          -7.809
REMARK INTER:                  -7.638
REMARK INTRA:                  -0.171
REMARK UNBOUND:                -0.627
REMARK  Name = X9X
REMARK  11 active torsions:
REMARK  status: ('A' for Active; 'I' for Inactive)
REMARK    1  A    between atoms: O_1  and  C_2
REMARK    2  A    between atoms: C_2  and  C_3
REMARK    3  A    between atoms: C_3  and  O_4
REMARK    4  A    between atoms: C_3  and  C_5
REMARK    5  A    between atoms: C_5  and  O_6
REMARK    6  A    between atoms: C_5  and  C_7
REMARK    7  A    between atoms: C_7  and  O_8
REMARK    8  A    between atoms: C_7  and  C_9
REMARK    9  A    between atoms: C_9  and  O_10
REMARK   10  A    between atoms: C_9  and  C_11
REMARK   11  A    between atoms: C_11  and  O_12
REMARK                            x       y       z     vdW  Elec       q    Type
REMARK                         _______ _______ _______ _____ _____    ______ ____
ROOT
ATOM      1  C   UNL     1       4.833  -2.390   1.379  1.00  0.00    +0.000 C 
ENDROOT
BRANCH   1   2
ATOM      2  O   UNL     1       5.876  -1.460   1.079  1.00  0.00    +0.000 OA
ATOM      3  H   UNL     1       5.594  -0.718   0.527  1.00  0.00    +0.000 HD
ENDBRANCH   1   2
BRANCH   1   4
ATOM      4  C   UNL     1       3.929  -2.555   0.156  1.00  0.00    +0.000 C 
BRANCH   4   5
ATOM      5  O   UNL     1       4.383  -3.660  -0.627  1.00  0.00    +0.000 OA
ATOM      6  H   UNL     1       3.722  -4.001  -1.246  1.00  0.00    +0.000 HD
ENDBRANCH   4   5
BRANCH   4   7
ATOM      7  C   UNL     1       3.975  -1.280  -0.688  1.00  0.00    +0.000 C 
BRANCH   7   8
ATOM      8  O   UNL     1       2.649  -0.926  -1.090  1.00  0.00    +0.000 OA
ATOM      9  H   UNL     1       2.037  -1.673  -1.131  1.00  0.00    +0.000 HD
ENDBRANCH   7   8
ENDBRANCH   4   7
ENDBRANCH   1   4
BRANCH   1  10
ATOM     10  C   UNL     1       4.008  -1.868   2.558  1.00  0.00    +0.000 C 
BRANCH  10  11
ATOM     11  O   UNL     1       3.824  -0.458   2.424  1.00  0.00    +0.000 OA
ATOM     12  H   UNL     1       4.573  -0.001   2.017  1.00  0.00    +0.000 HD
ENDBRANCH  10  11
BRANCH  10  13
ATOM     13  C   UNL     1       2.645  -2.562   2.573  1.00  0.00    +0.000 C 
BRANCH  13  14
ATOM     14  O   UNL     1       2.412  -3.129   3.863  1.00  0.00    +0.000 OA
ATOM     15  H   UNL     1       1.776  -2.638   4.400  1.00  0.00    +0.000 HD
ENDBRANCH  13  14
BRANCH  13  16
ATOM     16  C   UNL     1       1.549  -1.541   2.260  1.00  0.00    +0.000 C 
BRANCH  16  17
ATOM     17  O   UNL     1       0.941  -1.862   1.008  1.00  0.00    +0.000 OA
ATOM     18  H   UNL     1       1.517  -2.348   0.402  1.00  0.00    +0.000 HD
ENDBRANCH  16  17
ENDBRANCH  13  16
ENDBRANCH  10  13
ENDBRANCH   1  10
TORSDOF 11
ENDMDL
MODEL 5
REMARK VINA RESULT:    -4.820      1.360      4.000
REMARK INTER + INTRA:          -7.701
REMARK INTER:                  -6.860
REMARK INTRA:                  -0.842
REMARK UNBOUND:                -0.627
REMARK  Name = X9X
REMARK  11 active torsions:
REMARK  status: ('A' for Active; 'I' for Inactive)
REMARK    1  A    between atoms: O_1  and  C_2
REMARK    2  A    between atoms: C_2  and  C_3
REMARK    3  A    between atoms: C_3  and  O_4
REMARK    4  A    between atoms: C_3  and  C_5
REMARK    5  A    between atoms: C_5  and  O_6
REMARK    6  A    between atoms: C_5  and  C_7
REMARK    7  A    between atoms: C_7  and  O_8
REMARK    8  A    between atoms: C_7  and  C_9
REMARK    9  A    between atoms: C_9  and  O_10
REMARK   10  A    between atoms: C_9  and  C_11
REMARK   11  A    between atoms: C_11  and  O_12
REMARK                            x       y       z     vdW  Elec       q    Type
REMARK                         _______ _______ _______ _____ _____    ______ ____
ROOT
ATOM      1  C   UNL     1       2.746  -2.765   0.808  1.00  0.00    +0.000 C 
ENDROOT
BRANCH   1   2
ATOM      2  O   UNL     1       1.392  -3.118   0.517  1.00  0.00    +0.000 OA
ATOM      3  H   UNL     1       0.914  -2.452   0.004  1.00  0.00    +0.000 HD
ENDBRANCH   1   2
BRANCH   1   4
ATOM      4  C   UNL     1       2.769  -1.607   1.807  1.00  0.00    +0.000 C 
BRANCH   4   5
ATOM      5  O   UNL     1       3.923  -1.720   2.642  1.00  0.00    +0.000 OA
ATOM      6  H   UNL     1       4.132  -2.627   2.903  1.00  0.00    +0.000 HD
ENDBRANCH   4   5
BRANCH   4   7
ATOM      7  C   UNL     1       1.508  -1.655   2.671  1.00  0.00    +0.000 C 
BRANCH   7   8
ATOM      8  O   UNL     1       1.668  -2.638   3.695  1.00  0.00    +0.000 OA
ATOM      9  H   UNL     1       2.537  -3.061   3.703  1.00  0.00    +0.000 HD
ENDBRANCH   7   8
ENDBRANCH   4   7
ENDBRANCH   1   4
BRANCH   1  10
ATOM     10  C   UNL     1       3.452  -2.341  -0.483  1.00  0.00    +0.000 C 
BRANCH  10  11
ATOM     11  O   UNL     1       3.533  -0.915  -0.534  1.00  0.00    +0.000 OA
ATOM     12  H   UNL     1       4.425  -0.567  -0.400  1.00  0.00    +0.000 HD
ENDBRANCH  10  11
BRANCH  10  13
ATOM     13  C   UNL     1       4.861  -2.934  -0.513  1.00  0.00    +0.000 C 
BRANCH  13  14
ATOM     14  O   UNL     1       5.092  -3.552  -1.780  1.00  0.00    +0.000 OA
ATOM     15  H   UNL     1       5.734  -3.086  -2.333  1.00  0.00    +0.000 HD
ENDBRANCH  13  14
BRANCH  13  16
ATOM     16  C   UNL     1       5.887  -1.821  -0.294  1.00  0.00    +0.000 C 
BRANCH  16  17
ATOM     17  O   UNL     1       6.163  -1.694   1.103  1.00  0.00    +0.000 OA
ATOM     18  H   UNL     1       7.051  -1.368   1.301  1.00  0.00    +0.000 HD
ENDBRANCH  16  17
ENDBRANCH  13  16
ENDBRANCH  10  13
ENDBRANCH   1  10
TORSDOF 11
ENDMDL
MODEL 6
REMARK VINA RESULT:    -4.808     10.910     12.530
REMARK INTER + INTRA:          -7.684
REMARK INTER:                  -6.685
REMARK INTRA:                  -0.999
REMARK UNBOUND:                -0.627
REMARK  Name = X9X
REMARK  11 active torsions:
REMARK  status: ('A' for Active; 'I' for Inactive)
REMARK    1  A    between atoms: O_1  and  C_2
REMARK    2  A    between atoms: C_2  and  C_3
REMARK    3  A    between atoms: C_3  and  O_4
REMARK    4  A    between atoms: C_3  and  C_5
REMARK    5  A    between atoms: C_5  and  O_6
REMARK    6  A    between atoms: C_5  and  C_7
REMARK    7  A    between atoms: C_7  and  O_8
REMARK    8  A    between atoms: C_7  and  C_9
REMARK    9  A    between atoms: C_9  and  O_10
REMARK   10  A    between atoms: C_9  and  C_11
REMARK   11  A    between atoms: C_11  and  O_12
REMARK                            x       y       z     vdW  Elec       q    Type
REMARK                         _______ _______ _______ _____ _____    ______ ____
ROOT
ATOM      1  C   UNL     1      -7.090  -8.106   1.000  1.00  0.00    +0.000 C 
ENDROOT
BRANCH   1   2
ATOM      2  O   UNL     1      -6.005  -8.054   0.071  1.00  0.00    +0.000 OA
ATOM      3  H   UNL     1      -5.132  -8.067   0.486  1.00  0.00    +0.000 HD
ENDBRANCH   1   2
BRANCH   1   4
ATOM      4  C   UNL     1      -6.539  -8.220   2.422  1.00  0.00    +0.000 C 
BRANCH   4   5
ATOM      5  O   UNL     1      -7.517  -7.750   3.352  1.00  0.00    +0.000 OA
ATOM      6  H   UNL     1      -7.785  -6.832   3.210  1.00  0.00    +0.000 HD
ENDBRANCH   4   5
BRANCH   4   7
ATOM      7  C   UNL     1      -5.270  -7.375   2.547  1.00  0.00    +0.000 C 
BRANCH   7   8
ATOM      8  O   UNL     1      -4.125  -8.192   2.294  1.00  0.00    +0.000 OA
ATOM      9  H   UNL     1      -3.761  -8.616   3.082  1.00  0.00    +0.000 HD
ENDBRANCH   7   8
ENDBRANCH   4   7
ENDBRANCH   1   4
BRANCH   1  10
ATOM     10  C   UNL     1      -7.968  -9.321   0.693  1.00  0.00    +0.000 C 
BRANCH  10  11
ATOM     11  O   UNL     1      -8.853  -9.559   1.789  1.00  0.00    +0.000 OA
ATOM     12  H   UNL     1      -8.814 -10.459   2.139  1.00  0.00    +0.000 HD
ENDBRANCH  10  11
BRANCH  10  13
ATOM     13  C   UNL     1      -8.782  -9.056  -0.574  1.00  0.00    +0.000 C 
BRANCH  13  14
ATOM     14  O   UNL     1      -8.585  -7.704  -0.993  1.00  0.00    +0.000 OA
ATOM     15  H   UNL     1      -9.383  -7.159  -0.951  1.00  0.00    +0.000 HD
ENDBRANCH  13  14
BRANCH  13  16
ATOM     16  C   UNL     1      -8.324 -10.005  -1.682  1.00  0.00    +0.000 C 
BRANCH  16  17
ATOM     17  O   UNL     1      -7.071  -9.559  -2.205  1.00  0.00    +0.000 OA
ATOM     18  H   UNL     1      -6.656  -8.856  -1.687  1.00  0.00    +0.000 HD
ENDBRANCH  16  17
ENDBRANCH  13  16
ENDBRANCH  10  13
ENDBRANCH   1  10
TORSDOF 11
ENDMDL
MODEL 7
REMARK VINA RESULT:    -4.787      1.790      2.139
REMARK INTER + INTRA:          -7.653
REMARK INTER:                  -7.372
REMARK INTRA:                  -0.281
REMARK UNBOUND:                -0.627
REMARK  Name = X9X
REMARK  11 active torsions:
REMARK  status: ('A' for Active; 'I' for Inactive)
REMARK    1  A    between atoms: O_1  and  C_2
REMARK    2  A    between atoms: C_2  and  C_3
REMARK    3  A    between atoms: C_3  and  O_4
REMARK    4  A    between atoms: C_3  and  C_5
REMARK    5  A    between atoms: C_5  and  O_6
REMARK    6  A    between atoms: C_5  and  C_7
REMARK    7  A    between atoms: C_7  and  O_8
REMARK    8  A    between atoms: C_7  and  C_9
REMARK    9  A    between atoms: C_9  and  O_10
REMARK   10  A    between atoms: C_9  and  C_11
REMARK   11  A    between atoms: C_11  and  O_12
REMARK                            x       y       z     vdW  Elec       q    Type
REMARK                         _______ _______ _______ _____ _____    ______ ____
ROOT
ATOM      1  C   UNL     1       2.738  -2.257   0.460  1.00  0.00    +0.000 C 
ENDROOT
BRANCH   1   2
ATOM      2  O   UNL     1       2.782  -3.684   0.391  1.00  0.00    +0.000 OA
ATOM      3  H   UNL     1       1.937  -4.113   0.587  1.00  0.00    +0.000 HD
ENDBRANCH   1   2
BRANCH   1   4
ATOM      4  C   UNL     1       3.998  -1.677  -0.185  1.00  0.00    +0.000 C 
BRANCH   4   5
ATOM      5  O   UNL     1       3.660  -1.076  -1.436  1.00  0.00    +0.000 OA
ATOM      6  H   UNL     1       2.835  -0.572  -1.420  1.00  0.00    +0.000 HD
ENDBRANCH   4   5
BRANCH   4   7
ATOM      7  C   UNL     1       5.015  -2.796  -0.415  1.00  0.00    +0.000 C 
BRANCH   7   8
ATOM      8  O   UNL     1       4.751  -3.430  -1.669  1.00  0.00    +0.000 OA
ATOM      9  H   UNL     1       4.689  -4.393  -1.618  1.00  0.00    +0.000 HD
ENDBRANCH   7   8
ENDBRANCH   4   7
ENDBRANCH   1   4
BRANCH   1  10
ATOM     10  C   UNL     1       2.665  -1.818   1.924  1.00  0.00    +0.000 C 
BRANCH  10  11
ATOM     11  O   UNL     1       2.565  -2.971   2.763  1.00  0.00    +0.000 OA
ATOM     12  H   UNL     1       3.375  -3.171   3.252  1.00  0.00    +0.000 HD
ENDBRANCH  10  11
BRANCH  10  13
ATOM     13  C   UNL     1       3.925  -1.031   2.285  1.00  0.00    +0.000 C 
BRANCH  13  14
ATOM     14  O   UNL     1       3.558   0.187   2.935  1.00  0.00    +0.000 OA
ATOM     15  H   UNL     1       4.067   0.956   2.645  1.00  0.00    +0.000 HD
ENDBRANCH  13  14
BRANCH  13  16
ATOM     16  C   UNL     1       4.797  -1.867   3.224  1.00  0.00    +0.000 C 
BRANCH  16  17
ATOM     17  O   UNL     1       5.398  -1.015   4.202  1.00  0.00    +0.000 OA
ATOM     18  H   UNL     1       4.864  -0.894   4.999  1.00  0.00    +0.000 HD
ENDBRANCH  16  17
ENDBRANCH  13  16
ENDBRANCH  10  13
ENDBRANCH   1  10
TORSDOF 11
ENDMDL
MODEL 8
REMARK VINA RESULT:    -4.752      1.160      4.041
REMARK INTER + INTRA:          -7.601
REMARK INTER:                  -6.991
REMARK INTRA:                  -0.611
REMARK UNBOUND:                -0.627
REMARK  Name = X9X
REMARK  11 active torsions:
REMARK  status: ('A' for Active; 'I' for Inactive)
REMARK    1  A    between atoms: O_1  and  C_2
REMARK    2  A    between atoms: C_2  and  C_3
REMARK    3  A    between atoms: C_3  and  O_4
REMARK    4  A    between atoms: C_3  and  C_5
REMARK    5  A    between atoms: C_5  and  O_6
REMARK    6  A    between atoms: C_5  and  C_7
REMARK    7  A    between atoms: C_7  and  O_8
REMARK    8  A    between atoms: C_7  and  C_9
REMARK    9  A    between atoms: C_9  and  O_10
REMARK   10  A    between atoms: C_9  and  C_11
REMARK   11  A    between atoms: C_11  and  O_12
REMARK                            x       y       z     vdW  Elec       q    Type
REMARK                         _______ _______ _______ _____ _____    ______ ____
ROOT
ATOM      1  C   UNL     1       2.911  -3.344   1.054  1.00  0.00    +0.000 C 
ENDROOT
BRANCH   1   2
ATOM      2  O   UNL     1       1.909  -3.050   0.079  1.00  0.00    +0.000 OA
ATOM      3  H   UNL     1       2.248  -2.976  -0.824  1.00  0.00    +0.000 HD
ENDBRANCH   1   2
BRANCH   1   4
ATOM      4  C   UNL     1       2.736  -2.420   2.260  1.00  0.00    +0.000 C 
BRANCH   4   5
ATOM      5  O   UNL     1       2.505  -3.204   3.432  1.00  0.00    +0.000 OA
ATOM      6  H   UNL     1       1.601  -3.149   3.770  1.00  0.00    +0.000 HD
ENDBRANCH   4   5
BRANCH   4   7
ATOM      7  C   UNL     1       1.542  -1.494   2.024  1.00  0.00    +0.000 C 
BRANCH   7   8
ATOM      8  O   UNL     1       1.574  -0.422   2.970  1.00  0.00    +0.000 OA
ATOM      9  H   UNL     1       0.773  -0.343   3.504  1.00  0.00    +0.000 HD
ENDBRANCH   7   8
ENDBRANCH   4   7
ENDBRANCH   1   4
BRANCH   1  10
ATOM     10  C   UNL     1       4.297  -3.128   0.442  1.00  0.00    +0.000 C 
BRANCH  10  11
ATOM     11  O   UNL     1       4.237  -3.356  -0.967  1.00  0.00    +0.000 OA
ATOM     12  H   UNL     1       4.934  -2.910  -1.467  1.00  0.00    +0.000 HD
ENDBRANCH  10  11
BRANCH  10  13
ATOM     13  C   UNL     1       4.755  -1.693   0.709  1.00  0.00    +0.000 C 
BRANCH  13  14
ATOM     14  O   UNL     1       6.075  -1.707   1.255  1.00  0.00    +0.000 OA
ATOM     15  H   UNL     1       6.108  -1.549   2.208  1.00  0.00    +0.000 HD
ENDBRANCH  13  14
BRANCH  13  16
ATOM     16  C   UNL     1       4.754  -0.906  -0.603  1.00  0.00    +0.000 C 
BRANCH  16  17
ATOM     17  O   UNL     1       3.414  -0.785  -1.086  1.00  0.00    +0.000 OA
ATOM     18  H   UNL     1       2.814  -0.338  -0.475  1.00  0.00    +0.000 HD
ENDBRANCH  16  17
ENDBRANCH  13  16
ENDBRANCH  10  13
ENDBRANCH   1  10
TORSDOF 11
ENDMDL
MODEL 9
REMARK VINA RESULT:    -4.741     11.584     13.248
REMARK INTER + INTRA:          -7.585
REMARK INTER:                  -6.790
REMARK INTRA:                  -0.795
REMARK UNBOUND:                -0.627
REMARK  Name = X9X
REMARK  11 active torsions:
REMARK  status: ('A' for Active; 'I' for Inactive)
REMARK    1  A    between atoms: O_1  and  C_2
REMARK    2  A    between atoms: C_2  and  C_3
REMARK    3  A    between atoms: C_3  and  O_4
REMARK    4  A    between atoms: C_3  and  C_5
REMARK    5  A    between atoms: C_5  and  O_6
REMARK    6  A    between atoms: C_5  and  C_7
REMARK    7  A    between atoms: C_7  and  O_8
REMARK    8  A    between atoms: C_7  and  C_9
REMARK    9  A    between atoms: C_9  and  O_10
REMARK   10  A    between atoms: C_9  and  C_11
REMARK   11  A    between atoms: C_11  and  O_12
REMARK                            x       y       z     vdW  Elec       q    Type
REMARK                         _______ _______ _______ _____ _____    ______ ____
ROOT
ATOM      1  C   UNL     1      -8.086  -9.256   0.842  1.00  0.00    +0.000 C 
ENDROOT
BRANCH   1   2
ATOM      2  O   UNL     1      -8.832  -9.698   1.978  1.00  0.00    +0.000 OA
ATOM      3  H   UNL     1      -8.612 -10.594   2.269  1.00  0.00    +0.000 HD
ENDBRANCH   1   2
BRANCH   1   4
ATOM      4  C   UNL     1      -7.246  -8.037   1.226  1.00  0.00    +0.000 C 
BRANCH   4   5
ATOM      5  O   UNL     1      -6.050  -8.017   0.444  1.00  0.00    +0.000 OA
ATOM      6  H   UNL     1      -6.085  -8.579  -0.342  1.00  0.00    +0.000 HD
ENDBRANCH   4   5
BRANCH   4   7
ATOM      7  C   UNL     1      -6.884  -8.114   2.710  1.00  0.00    +0.000 C 
BRANCH   7   8
ATOM      8  O   UNL     1      -5.694  -7.358   2.950  1.00  0.00    +0.000 OA
ATOM      9  H   UNL     1      -5.328  -6.938   2.161  1.00  0.00    +0.000 HD
ENDBRANCH   7   8
ENDBRANCH   4   7
ENDBRANCH   1   4
BRANCH   1  10
ATOM     10  C   UNL     1      -9.049  -8.879  -0.286  1.00  0.00    +0.000 C 
BRANCH  10  11
ATOM     11  O   UNL     1      -8.671  -7.614  -0.832  1.00  0.00    +0.000 OA
ATOM     12  H   UNL     1      -8.637  -6.899  -0.182  1.00  0.00    +0.000 HD
ENDBRANCH  10  11
BRANCH  10  13
ATOM     13  C   UNL     1      -8.995  -9.945  -1.381  1.00  0.00    +0.000 C 
BRANCH  13  14
ATOM     14  O   UNL     1      -9.365  -9.363  -2.632  1.00  0.00    +0.000 OA
ATOM     15  H   UNL     1      -9.784  -9.983  -3.245  1.00  0.00    +0.000 HD
ENDBRANCH  13  14
BRANCH  13  16
ATOM     16  C   UNL     1      -7.575 -10.504  -1.479  1.00  0.00    +0.000 C 
BRANCH  16  17
ATOM     17  O   UNL     1      -6.741  -9.569  -2.166  1.00  0.00    +0.000 OA
ATOM     18  H   UNL     1      -7.227  -8.887  -2.648  1.00  0.00    +0.000 HD
ENDBRANCH  16  17
ENDBRANCH  13  16
ENDBRANCH  10  13
ENDBRANCH   1  10
TORSDOF 11
ENDMDL
