MODEL 1
REMARK VINA RESULT:    -6.131      0.000      0.000
REMARK INTER + INTRA:          -6.847
REMARK INTER:                  -6.847
REMARK INTRA:                   0.000
REMARK UNBOUND:                 0.000
REMARK  Name = ARA
REMARK  4 active torsions:
REMARK  status: ('A' for Active; 'I' for Inactive)
REMARK    1  A    between atoms: C_1  and  O_6
REMARK    2  A    between atoms: C_2  and  O_7
REMARK    3  A    between atoms: C_3  and  O_8
REMARK    4  A    between atoms: C_4  and  O_9
REMARK                            x       y       z     vdW  Elec       q    Type
REMARK                         _______ _______ _______ _____ _____    ______ ____
ROOT
ATOM      1  C   UNL     1       4.212  -2.931   0.016  1.00  0.00    +0.000 C 
ATOM      2  C   UNL     1       4.343  -1.536   0.628  1.00  0.00    +0.000 C 
ATOM      3  C   UNL     1       3.829  -1.572   2.073  1.00  0.00    +0.000 C 
ATOM      4  C   UNL     1       2.413  -2.154   2.072  1.00  0.00    +0.000 C 
ATOM      5  C   UNL     1       2.428  -3.504   1.351  1.00  0.00    +0.000 C 
ATOM      6  O   UNL     1       2.842  -3.325  -0.001  1.00  0.00    +0.000 OA
ENDROOT
BRANCH   1   7
ATOM      7  O   UNL     1       4.719  -2.913  -1.320  1.00  0.00    +0.000 OA
ATOM      8  H   UNL     1       4.598  -2.013  -1.653  1.00  0.00    +0.000 HD
ENDBRANCH   1   7
BRANCH   2   9
ATOM      9  O   UNL     1       5.716  -1.135   0.617  1.00  0.00    +0.000 OA
ATOM     10  H   UNL     1       6.024  -1.221  -0.295  1.00  0.00    +0.000 HD
ENDBRANCH   2   9
BRANCH   3  11
ATOM     11  O   UNL     1       3.809  -0.247   2.608  1.00  0.00    +0.000 OA
ATOM     12  H   UNL     1       2.948  -0.130   3.032  1.00  0.00    +0.000 HD
ENDBRANCH   3  11
BRANCH   4  13
ATOM     13  O   UNL     1       1.528  -1.260   1.395  1.00  0.00    +0.000 OA
ATOM     14  H   UNL     1       1.885  -1.134   0.506  1.00  0.00    +0.000 HD
ENDBRANCH   4  13
TORSDOF 4
ENDMDL
MODEL 2
REMARK VINA RESULT:    -5.993      1.347      3.379
REMARK INTER + INTRA:          -6.694
REMARK INTER:                  -6.694
REMARK INTRA:                   0.000
REMARK UNBOUND:                 0.000
REMARK  Name = ARA
REMARK  4 active torsions:
REMARK  status: ('A' for Active; 'I' for Inactive)
REMARK    1  A    between atoms: C_1  and  O_6
REMARK    2  A    between atoms: C_2  and  O_7
REMARK    3  A    between atoms: C_3  and  O_8
REMARK    4  A    between atoms: C_4  and  O_9
REMARK                            x       y       z     vdW  Elec       q    Type
REMARK                         _______ _______ _______ _____ _____    ______ ____
ROOT
ATOM      1  C   UNL     1       4.524  -1.836   2.206  1.00  0.00    +0.000 C 
ATOM      2  C   UNL     1       3.034  -1.882   1.865  1.00  0.00    +0.000 C 
ATOM      3  C   UNL     1       2.819  -2.847   0.692  1.00  0.00    +0.000 C 
ATOM      4  C   UNL     1       3.740  -2.431  -0.458  1.00  0.00    +0.000 C 
ATOM      5  C   UNL     1       5.177  -2.344   0.059  1.00  0.00    +0.000 C 
ATOM      6  O   UNL     1       5.263  -1.358   1.085  1.00  0.00    +0.000 OA
ENDROOT
BRANCH   1   7
ATOM      7  O   UNL     1       4.730  -0.962   3.319  1.00  0.00    +0.000 OA
ATOM      8  H   UNL     1       5.490  -0.407   3.101  1.00  0.00    +0.000 HD
ENDBRANCH   1   7
BRANCH   2   9
ATOM      9  O   UNL     1       2.297  -2.335   3.002  1.00  0.00    +0.000 OA
ATOM     10  H   UNL     1       2.941  -2.681   3.633  1.00  0.00    +0.000 HD
ENDBRANCH   2   9
BRANCH   3  11
ATOM     11  O   UNL     1       1.455  -2.789   0.267  1.00  0.00    +0.000 OA
ATOM     12  H   UNL     1       1.444  -2.304  -0.569  1.00  0.00    +0.000 HD
ENDBRANCH   3  11
BRANCH   4  13
ATOM     13  O   UNL     1       3.334  -1.156  -0.959  1.00  0.00    +0.000 OA
ATOM     14  H   UNL     1       3.767  -1.042  -1.816  1.00  0.00    +0.000 HD
ENDBRANCH   4  13
TORSDOF 4
ENDMDL
MODEL 3
REMARK VINA RESULT:    -5.907      1.028      3.676
REMARK INTER + INTRA:          -6.598
REMARK INTER:                  -6.598
REMARK INTRA:                   0.000
REMARK UNBOUND:                 0.000
REMARK  Name = ARA
REMARK  4 active torsions:
REMARK  status: ('A' for Active; 'I' for Inactive)
REMARK    1  A    between atoms: C_1  and  O_6
REMARK    2  A    between atoms: C_2  and  O_7
REMARK    3  A    between atoms: C_3  and  O_8
REMARK    4  A    between atoms: C_4  and  O_9
REMARK                            x       y       z     vdW  Elec       q    Type
REMARK                         _______ _______ _______ _____ _____    ______ ____
ROOT
ATOM      1  C   UNL     1       2.783  -1.717   2.200  1.00  0.00    +0.000 C 
ATOM      2  C   UNL     1       2.763  -1.959   0.691  1.00  0.00    +0.000 C 
ATOM      3  C   UNL     1       4.023  -2.736   0.290  1.00  0.00    +0.000 C 
ATOM      4  C   UNL     1       5.249  -1.982   0.815  1.00  0.00    +0.000 C 
ATOM      5  C   UNL     1       5.081  -1.738   2.316  1.00  0.00    +0.000 C 
ATOM      6  O   UNL     1       3.925  -0.938   2.550  1.00  0.00    +0.000 OA
ENDROOT
BRANCH   1   7
ATOM      7  O   UNL     1       1.597  -1.020   2.586  1.00  0.00    +0.000 OA
ATOM      8  H   UNL     1       1.414  -0.373   1.891  1.00  0.00    +0.000 HD
ENDBRANCH   1   7
BRANCH   2   9
ATOM      9  O   UNL     1       1.602  -2.716   0.343  1.00  0.00    +0.000 OA
ATOM     10  H   UNL     1       1.218  -3.034   1.170  1.00  0.00    +0.000 HD
ENDBRANCH   2   9
BRANCH   3  11
ATOM     11  O   UNL     1       4.091  -2.841  -1.133  1.00  0.00    +0.000 OA
ATOM     12  H   UNL     1       3.182  -2.799  -1.460  1.00  0.00    +0.000 HD
ENDBRANCH   3  11
BRANCH   4  13
ATOM     13  O   UNL     1       5.366  -0.730   0.137  1.00  0.00    +0.000 OA
ATOM     14  H   UNL     1       6.089  -0.822  -0.498  1.00  0.00    +0.000 HD
ENDBRANCH   4  13
TORSDOF 4
ENDMDL
MODEL 4
REMARK VINA RESULT:    -5.870      1.229      2.274
REMARK INTER + INTRA:          -6.556
REMARK INTER:                  -6.556
REMARK INTRA:                   0.000
REMARK UNBOUND:                 0.000
REMARK  Name = ARA
REMARK  4 active torsions:
REMARK  status: ('A' for Active; 'I' for Inactive)
REMARK    1  A    between atoms: C_1  and  O_6
REMARK    2  A    between atoms: C_2  and  O_7
REMARK    3  A    between atoms: C_3  and  O_8
REMARK    4  A    between atoms: C_4  and  O_9
REMARK                            x       y       z     vdW  Elec       q    Type
REMARK                         _______ _______ _______ _____ _____    ______ ____
ROOT
ATOM      1  C   UNL     1       2.725  -1.643  -0.064  1.00  0.00    +0.000 C 
ATOM      2  C   UNL     1       4.210  -1.292   0.034  1.00  0.00    +0.000 C 
ATOM      3  C   UNL     1       4.846  -2.113   1.163  1.00  0.00    +0.000 C 
ATOM      4  C   UNL     1       4.035  -1.890   2.444  1.00  0.00    +0.000 C 
ATOM      5  C   UNL     1       2.563  -2.196   2.163  1.00  0.00    +0.000 C 
ATOM      6  O   UNL     1       2.069  -1.315   1.158  1.00  0.00    +0.000 OA
ENDROOT
BRANCH   1   7
ATOM      7  O   UNL     1       2.133  -0.905  -1.135  1.00  0.00    +0.000 OA
ATOM      8  H   UNL     1       1.488  -0.304  -0.738  1.00  0.00    +0.000 HD
ENDBRANCH   1   7
BRANCH   2   9
ATOM      9  O   UNL     1       4.857  -1.598  -1.204  1.00  0.00    +0.000 OA
ATOM     10  H   UNL     1       5.734  -1.937  -0.985  1.00  0.00    +0.000 HD
ENDBRANCH   2   9
BRANCH   3  11
ATOM     11  O   UNL     1       6.196  -1.690   1.363  1.00  0.00    +0.000 OA
ATOM     12  H   UNL     1       6.199  -0.726   1.296  1.00  0.00    +0.000 HD
ENDBRANCH   3  11
BRANCH   4  13
ATOM     13  O   UNL     1       4.170  -0.532   2.864  1.00  0.00    +0.000 OA
ATOM     14  H   UNL     1       3.891   0.020   2.120  1.00  0.00    +0.000 HD
ENDBRANCH   4  13
TORSDOF 4
ENDMDL
MODEL 5
REMARK VINA RESULT:    -5.784      1.119      2.877
REMARK INTER + INTRA:          -6.460
REMARK INTER:                  -6.460
REMARK INTRA:                   0.000
REMARK UNBOUND:                 0.000
REMARK  Name = ARA
REMARK  4 active torsions:
REMARK  status: ('A' for Active; 'I' for Inactive)
REMARK    1  A    between atoms: C_1  and  O_6
REMARK    2  A    between atoms: C_2  and  O_7
REMARK    3  A    between atoms: C_3  and  O_8
REMARK    4  A    between atoms: C_4  and  O_9
REMARK                            x       y       z     vdW  Elec       q    Type
REMARK                         _______ _______ _______ _____ _____    ______ ____
ROOT
ATOM      1  C   UNL     1       4.011  -1.306   2.269  1.00  0.00    +0.000 C 
ATOM      2  C   UNL     1       4.659  -2.020   1.082  1.00  0.00    +0.000 C 
ATOM      3  C   UNL     1       3.711  -1.955  -0.121  1.00  0.00    +0.000 C 
ATOM      4  C   UNL     1       2.345  -2.503   0.304  1.00  0.00    +0.000 C 
ATOM      5  C   UNL     1       1.871  -1.752   1.550  1.00  0.00    +0.000 C 
ATOM      6  O   UNL     1       2.792  -1.958   2.618  1.00  0.00    +0.000 OA
ENDROOT
BRANCH   1   7
ATOM      7  O   UNL     1       4.902  -1.335   3.385  1.00  0.00    +0.000 OA
ATOM      8  H   UNL     1       5.232  -0.434   3.503  1.00  0.00    +0.000 HD
ENDBRANCH   1   7
BRANCH   2   9
ATOM      9  O   UNL     1       5.894  -1.379   0.755  1.00  0.00    +0.000 OA
ATOM     10  H   UNL     1       6.253  -1.025   1.579  1.00  0.00    +0.000 HD
ENDBRANCH   2   9
BRANCH   3  11
ATOM     11  O   UNL     1       4.238  -2.743  -1.192  1.00  0.00    +0.000 OA
ATOM     12  H   UNL     1       5.080  -2.342  -1.444  1.00  0.00    +0.000 HD
ENDBRANCH   3  11
BRANCH   4  13
ATOM     13  O   UNL     1       2.460  -3.896   0.600  1.00  0.00    +0.000 OA
ATOM     14  H   UNL     1       1.708  -4.125   1.162  1.00  0.00    +0.000 HD
ENDBRANCH   4  13
TORSDOF 4
ENDMDL
MODEL 6
REMARK VINA RESULT:    -5.725      1.240      3.061
REMARK INTER + INTRA:          -6.394
REMARK INTER:                  -6.394
REMARK INTRA:                   0.000
REMARK UNBOUND:                 0.000
REMARK  Name = ARA
REMARK  4 active torsions:
REMARK  status: ('A' for Active; 'I' for Inactive)
REMARK    1  A    between atoms: C_1  and  O_6
REMARK    2  A    between atoms: C_2  and  O_7
REMARK    3  A    between atoms: C_3  and  O_8
REMARK    4  A    between atoms: C_4  and  O_9
REMARK                            x       y       z     vdW  Elec       q    Type
REMARK                         _______ _______ _______ _____ _____    ______ ____
ROOT
ATOM      1  C   UNL     1       2.460  -1.598   2.020  1.00  0.00    +0.000 C 
ATOM      2  C   UNL     1       3.961  -1.883   2.096  1.00  0.00    +0.000 C 
ATOM      3  C   UNL     1       4.644  -1.313   0.847  1.00  0.00    +0.000 C 
ATOM      4  C   UNL     1       3.936  -1.869  -0.392  1.00  0.00    +0.000 C 
ATOM      5  C   UNL     1       2.436  -1.585  -0.281  1.00  0.00    +0.000 C 
ATOM      6  O   UNL     1       1.905  -2.234   0.871  1.00  0.00    +0.000 OA
ENDROOT
BRANCH   1   7
ATOM      7  O   UNL     1       1.821  -2.098   3.196  1.00  0.00    +0.000 OA
ATOM      8  H   UNL     1       2.259  -1.682   3.951  1.00  0.00    +0.000 HD
ENDBRANCH   1   7
BRANCH   2   9
ATOM      9  O   UNL     1       4.506  -1.265   3.265  1.00  0.00    +0.000 OA
ATOM     10  H   UNL     1       5.435  -1.525   3.311  1.00  0.00    +0.000 HD
ENDBRANCH   2   9
BRANCH   3  11
ATOM     11  O   UNL     1       6.020  -1.699   0.834  1.00  0.00    +0.000 OA
ATOM     12  H   UNL     1       6.135  -2.346   1.543  1.00  0.00    +0.000 HD
ENDBRANCH   3  11
BRANCH   4  13
ATOM     13  O   UNL     1       4.151  -3.279  -0.473  1.00  0.00    +0.000 OA
ATOM     14  H   UNL     1       4.409  -3.470  -1.385  1.00  0.00    +0.000 HD
ENDBRANCH   4  13
TORSDOF 4
ENDMDL
MODEL 7
REMARK VINA RESULT:    -5.325      1.356      2.979
REMARK INTER + INTRA:          -5.948
REMARK INTER:                  -5.948
REMARK INTRA:                   0.000
REMARK UNBOUND:                 0.000
REMARK  Name = ARA
REMARK  4 active torsions:
REMARK  status: ('A' for Active; 'I' for Inactive)
REMARK    1  A    between atoms: C_1  and  O_6
REMARK    2  A    between atoms: C_2  and  O_7
REMARK    3  A    between atoms: C_3  and  O_8
REMARK    4  A    between atoms: C_4  and  O_9
REMARK                            x       y       z     vdW  Elec       q    Type
REMARK                         _______ _______ _______ _____ _____    ______ ____
ROOT
ATOM      1  C   UNL     1       1.998  -2.003   0.420  1.00  0.00    +0.000 C 
ATOM      2  C   UNL     1       2.731  -2.090   1.759  1.00  0.00    +0.000 C 
ATOM      3  C   UNL     1       3.825  -1.015   1.803  1.00  0.00    +0.000 C 
ATOM      4  C   UNL     1       4.710  -1.169   0.562  1.00  0.00    +0.000 C 
ATOM      5  C   UNL     1       3.827  -1.152  -0.687  1.00  0.00    +0.000 C 
ATOM      6  O   UNL     1       2.911  -2.243  -0.648  1.00  0.00    +0.000 OA
ENDROOT
BRANCH   1   7
ATOM      7  O   UNL     1       0.957  -2.981   0.385  1.00  0.00    +0.000 OA
ATOM      8  H   UNL     1       1.359  -3.807   0.085  1.00  0.00    +0.000 HD
ENDBRANCH   1   7
BRANCH   2   9
ATOM      9  O   UNL     1       1.805  -1.876   2.827  1.00  0.00    +0.000 OA
ATOM     10  H   UNL     1       1.465  -2.744   3.081  1.00  0.00    +0.000 HD
ENDBRANCH   2   9
BRANCH   3  11
ATOM     11  O   UNL     1       4.612  -1.179   2.984  1.00  0.00    +0.000 OA
ATOM     12  H   UNL     1       4.492  -2.093   3.276  1.00  0.00    +0.000 HD
ENDBRANCH   3  11
BRANCH   4  13
ATOM     13  O   UNL     1       5.417  -2.408   0.631  1.00  0.00    +0.000 OA
ATOM     14  H   UNL     1       5.987  -2.448  -0.149  1.00  0.00    +0.000 HD
ENDBRANCH   4  13
TORSDOF 4
ENDMDL
MODEL 8
REMARK VINA RESULT:    -5.005      1.381      2.610
REMARK INTER + INTRA:          -5.590
REMARK INTER:                  -5.590
REMARK INTRA:                   0.000
REMARK UNBOUND:                 0.000
REMARK  Name = ARA
REMARK  4 active torsions:
REMARK  status: ('A' for Active; 'I' for Inactive)
REMARK    1  A    between atoms: C_1  and  O_6
REMARK    2  A    between atoms: C_2  and  O_7
REMARK    3  A    between atoms: C_3  and  O_8
REMARK    4  A    between atoms: C_4  and  O_9
REMARK                            x       y       z     vdW  Elec       q    Type
REMARK                         _______ _______ _______ _____ _____    ______ ____
ROOT
ATOM      1  C   UNL     1       4.689  -1.662   0.516  1.00  0.00    +0.000 C 
ATOM      2  C   UNL     1       3.506  -2.536   0.098  1.00  0.00    +0.000 C 
ATOM      3  C   UNL     1       2.209  -1.911   0.627  1.00  0.00    +0.000 C 
ATOM      4  C   UNL     1       2.355  -1.687   2.135  1.00  0.00    +0.000 C 
ATOM      5  C   UNL     1       3.626  -0.876   2.399  1.00  0.00    +0.000 C 
ATOM      6  O   UNL     1       4.765  -1.598   1.938  1.00  0.00    +0.000 OA
ENDROOT
BRANCH   1   7
ATOM      7  O   UNL     1       5.899  -2.220  -0.001  1.00  0.00    +0.000 OA
ATOM      8  H   UNL     1       5.790  -3.181   0.010  1.00  0.00    +0.000 HD
ENDBRANCH   1   7
BRANCH   2   9
ATOM      9  O   UNL     1       3.453  -2.618  -1.329  1.00  0.00    +0.000 OA
ATOM     10  H   UNL     1       3.639  -3.536  -1.563  1.00  0.00    +0.000 HD
ENDBRANCH   2   9
BRANCH   3  11
ATOM     11  O   UNL     1       1.113  -2.791   0.371  1.00  0.00    +0.000 OA
ATOM     12  H   UNL     1       0.454  -2.625   1.059  1.00  0.00    +0.000 HD
ENDBRANCH   3  11
BRANCH   4  13
ATOM     13  O   UNL     1       2.447  -2.948   2.799  1.00  0.00    +0.000 OA
ATOM     14  H   UNL     1       3.147  -3.447   2.357  1.00  0.00    +0.000 HD
ENDBRANCH   4  13
TORSDOF 4
ENDMDL
MODEL 9
REMARK VINA RESULT:    -4.937      1.203      2.712
REMARK INTER + INTRA:          -5.514
REMARK INTER:                  -5.514
REMARK INTRA:                   0.000
REMARK UNBOUND:                 0.000
REMARK  Name = ARA
REMARK  4 active torsions:
REMARK  status: ('A' for Active; 'I' for Inactive)
REMARK    1  A    between atoms: C_1  and  O_6
REMARK    2  A    between atoms: C_2  and  O_7
REMARK    3  A    between atoms: C_3  and  O_8
REMARK    4  A    between atoms: C_4  and  O_9
REMARK                            x       y       z     vdW  Elec       q    Type
REMARK                         _______ _______ _______ _____ _____    ______ ____
ROOT
ATOM      1  C   UNL     1       4.335  -2.763  -0.469  1.00  0.00    +0.000 C 
ATOM      2  C   UNL     1       3.550  -3.174   0.777  1.00  0.00    +0.000 C 
ATOM      3  C   UNL     1       3.021  -1.915   1.475  1.00  0.00    +0.000 C 
ATOM      4  C   UNL     1       4.197  -0.967   1.727  1.00  0.00    +0.000 C 
ATOM      5  C   UNL     1       4.934  -0.722   0.409  1.00  0.00    +0.000 C 
ATOM      6  O   UNL     1       5.447  -1.953  -0.094  1.00  0.00    +0.000 OA
ENDROOT
BRANCH   1   7
ATOM      7  O   UNL     1       4.805  -3.933  -1.142  1.00  0.00    +0.000 OA
ATOM      8  H   UNL     1       4.485  -3.879  -2.052  1.00  0.00    +0.000 HD
ENDBRANCH   1   7
BRANCH   2   9
ATOM      9  O   UNL     1       2.453  -4.009   0.397  1.00  0.00    +0.000 OA
ATOM     10  H   UNL     1       2.321  -4.641   1.116  1.00  0.00    +0.000 HD
ENDBRANCH   2   9
BRANCH   3  11
ATOM     11  O   UNL     1       2.412  -2.274   2.717  1.00  0.00    +0.000 OA
ATOM     12  H   UNL     1       1.868  -1.523   2.989  1.00  0.00    +0.000 HD
ENDBRANCH   3  11
BRANCH   4  13
ATOM     13  O   UNL     1       5.092  -1.556   2.672  1.00  0.00    +0.000 OA
ATOM     14  H   UNL     1       5.166  -0.936   3.411  1.00  0.00    +0.000 HD
ENDBRANCH   4  13
TORSDOF 4
ENDMDL
