MODEL 1
REMARK VINA RESULT:    -5.707      0.000      0.000
REMARK INTER + INTRA:          -6.786
REMARK INTER:                  -6.708
REMARK INTRA:                  -0.079
REMARK UNBOUND:                -0.079
REMARK  Name = BDR
REMARK  5 active torsions:
REMARK  status: ('A' for Active; 'I' for Inactive)
REMARK    1  A    between atoms: C_1  and  C_9
REMARK    2  A    between atoms: C_3  and  O_4
REMARK    3  A    between atoms: C_5  and  O_6
REMARK    4  A    between atoms: C_7  and  O_8
REMARK    5  A    between atoms: C_9  and  O_10
REMARK                            x       y       z     vdW  Elec       q    Type
REMARK                         _______ _______ _______ _____ _____    ______ ____
ROOT
ATOM      1  C   UNL     1       2.823  -1.348   1.117  1.00  0.00    +0.000 C 
ATOM      2  O   UNL     1       4.159  -1.063   1.562  1.00  0.00    +0.000 OA
ATOM      3  C   UNL     1       5.053  -1.485   0.511  1.00  0.00    +0.000 C 
ATOM      4  C   UNL     1       4.429  -2.814   0.016  1.00  0.00    +0.000 C 
ATOM      5  C   UNL     1       2.910  -2.516   0.116  1.00  0.00    +0.000 C 
ENDROOT
BRANCH   3   6
ATOM      6  O   UNL     1       6.368  -1.702   1.026  1.00  0.00    +0.000 OA
ATOM      7  H   UNL     1       6.333  -1.513   1.973  1.00  0.00    +0.000 HD
ENDBRANCH   3   6
BRANCH   4   8
ATOM      8  O   UNL     1       4.808  -3.082  -1.335  1.00  0.00    +0.000 OA
ATOM      9  H   UNL     1       5.767  -3.206  -1.337  1.00  0.00    +0.000 HD
ENDBRANCH   4   8
BRANCH   5  10
ATOM     10  O   UNL     1       2.391  -2.131  -1.159  1.00  0.00    +0.000 OA
ATOM     11  H   UNL     1       1.473  -1.863  -1.017  1.00  0.00    +0.000 HD
ENDBRANCH   5  10
BRANCH   1  12
ATOM     12  C   UNL     1       1.952  -1.747   2.308  1.00  0.00    +0.000 C 
BRANCH  12  13
ATOM     13  O   UNL     1       2.698  -2.591   3.185  1.00  0.00    +0.000 OA
ATOM     14  H   UNL     1       2.249  -3.446   3.202  1.00  0.00    +0.000 HD
ENDBRANCH  12  13
ENDBRANCH   1  12
TORSDOF 5
ENDMDL
MODEL 2
REMARK VINA RESULT:    -5.596      1.421      3.328
REMARK INTER + INTRA:          -6.655
REMARK INTER:                  -6.637
REMARK INTRA:                  -0.019
REMARK UNBOUND:                -0.079
REMARK  Name = BDR
REMARK  5 active torsions:
REMARK  status: ('A' for Active; 'I' for Inactive)
REMARK    1  A    between atoms: C_1  and  C_9
REMARK    2  A    between atoms: C_3  and  O_4
REMARK    3  A    between atoms: C_5  and  O_6
REMARK    4  A    between atoms: C_7  and  O_8
REMARK    5  A    between atoms: C_9  and  O_10
REMARK                            x       y       z     vdW  Elec       q    Type
REMARK                         _______ _______ _______ _____ _____    ______ ____
ROOT
ATOM      1  C   UNL     1       4.085  -2.835   0.338  1.00  0.00    +0.000 C 
ATOM      2  O   UNL     1       4.914  -2.407   1.430  1.00  0.00    +0.000 OA
ATOM      3  C   UNL     1       4.031  -1.969   2.483  1.00  0.00    +0.000 C 
ATOM      4  C   UNL     1       2.910  -1.213   1.727  1.00  0.00    +0.000 C 
ATOM      5  C   UNL     1       2.752  -2.069   0.443  1.00  0.00    +0.000 C 
ENDROOT
BRANCH   3   6
ATOM      6  O   UNL     1       4.715  -1.094   3.383  1.00  0.00    +0.000 OA
ATOM      7  H   UNL     1       4.511  -0.191   3.105  1.00  0.00    +0.000 HD
ENDBRANCH   3   6
BRANCH   4   8
ATOM      8  O   UNL     1       1.699  -1.205   2.485  1.00  0.00    +0.000 OA
ATOM      9  H   UNL     1       1.006  -1.550   1.906  1.00  0.00    +0.000 HD
ENDBRANCH   4   8
BRANCH   5  10
ATOM     10  O   UNL     1       1.656  -2.975   0.577  1.00  0.00    +0.000 OA
ATOM     11  H   UNL     1       0.895  -2.453   0.865  1.00  0.00    +0.000 HD
ENDBRANCH   5  10
BRANCH   1  12
ATOM     12  C   UNL     1       4.768  -2.513  -0.991  1.00  0.00    +0.000 C 
BRANCH  12  13
ATOM     13  O   UNL     1       5.106  -3.728  -1.662  1.00  0.00    +0.000 OA
ATOM     14  H   UNL     1       4.956  -3.578  -2.605  1.00  0.00    +0.000 HD
ENDBRANCH  12  13
ENDBRANCH   1  12
TORSDOF 5
ENDMDL
MODEL 3
REMARK VINA RESULT:    -5.421      1.289      2.555
REMARK INTER + INTRA:          -6.451
REMARK INTER:                  -6.385
REMARK INTRA:                  -0.066
REMARK UNBOUND:                -0.079
REMARK  Name = BDR
REMARK  5 active torsions:
REMARK  status: ('A' for Active; 'I' for Inactive)
REMARK    1  A    between atoms: C_1  and  C_9
REMARK    2  A    between atoms: C_3  and  O_4
REMARK    3  A    between atoms: C_5  and  O_6
REMARK    4  A    between atoms: C_7  and  O_8
REMARK    5  A    between atoms: C_9  and  O_10
REMARK                            x       y       z     vdW  Elec       q    Type
REMARK                         _______ _______ _______ _____ _____    ______ ____
ROOT
ATOM      1  C   UNL     1       3.084  -2.533   1.750  1.00  0.00    +0.000 C 
ATOM      2  O   UNL     1       3.170  -3.226   0.494  1.00  0.00    +0.000 OA
ATOM      3  C   UNL     1       4.471  -2.938  -0.059  1.00  0.00    +0.000 C 
ATOM      4  C   UNL     1       4.680  -1.438   0.268  1.00  0.00    +0.000 C 
ATOM      5  C   UNL     1       4.030  -1.319   1.671  1.00  0.00    +0.000 C 
ENDROOT
BRANCH   3   6
ATOM      6  O   UNL     1       4.476  -3.155  -1.472  1.00  0.00    +0.000 OA
ATOM      7  H   UNL     1       4.108  -4.035  -1.622  1.00  0.00    +0.000 HD
ENDBRANCH   3   6
BRANCH   4   8
ATOM      8  O   UNL     1       6.071  -1.118   0.323  1.00  0.00    +0.000 OA
ATOM      9  H   UNL     1       6.164  -0.385   0.947  1.00  0.00    +0.000 HD
ENDBRANCH   4   8
BRANCH   5  10
ATOM     10  O   UNL     1       5.027  -1.386   2.692  1.00  0.00    +0.000 OA
ATOM     11  H   UNL     1       5.608  -2.125   2.468  1.00  0.00    +0.000 HD
ENDBRANCH   5  10
BRANCH   1  12
ATOM     12  C   UNL     1       1.650  -2.062   1.987  1.00  0.00    +0.000 C 
BRANCH  12  13
ATOM     13  O   UNL     1       1.656  -0.924   2.851  1.00  0.00    +0.000 OA
ATOM     14  H   UNL     1       0.763  -0.556   2.836  1.00  0.00    +0.000 HD
ENDBRANCH  12  13
ENDBRANCH   1  12
TORSDOF 5
ENDMDL
MODEL 4
REMARK VINA RESULT:    -5.168      1.347      3.910
REMARK INTER + INTRA:          -6.153
REMARK INTER:                  -6.080
REMARK INTRA:                  -0.073
REMARK UNBOUND:                -0.079
REMARK  Name = BDR
REMARK  5 active torsions:
REMARK  status: ('A' for Active; 'I' for Inactive)
REMARK    1  A    between atoms: C_1  and  C_9
REMARK    2  A    between atoms: C_3  and  O_4
REMARK    3  A    between atoms: C_5  and  O_6
REMARK    4  A    between atoms: C_7  and  O_8
REMARK    5  A    between atoms: C_9  and  O_10
REMARK                            x       y       z     vdW  Elec       q    Type
REMARK                         _______ _______ _______ _____ _____    ______ ____
ROOT
ATOM      1  C   UNL     1       4.181  -1.491   0.439  1.00  0.00    +0.000 C 
ATOM      2  O   UNL     1       2.935  -1.857  -0.176  1.00  0.00    +0.000 OA
ATOM      3  C   UNL     1       1.967  -1.997   0.885  1.00  0.00    +0.000 C 
ATOM      4  C   UNL     1       2.765  -2.695   2.014  1.00  0.00    +0.000 C 
ATOM      5  C   UNL     1       4.162  -2.036   1.879  1.00  0.00    +0.000 C 
ENDROOT
BRANCH   3   6
ATOM      6  O   UNL     1       0.870  -2.809   0.462  1.00  0.00    +0.000 OA
ATOM      7  H   UNL     1       0.441  -2.343  -0.268  1.00  0.00    +0.000 HD
ENDBRANCH   3   6
BRANCH   4   8
ATOM      8  O   UNL     1       2.191  -2.415   3.292  1.00  0.00    +0.000 OA
ATOM      9  H   UNL     1       2.615  -3.010   3.925  1.00  0.00    +0.000 HD
ENDBRANCH   4   8
BRANCH   5  10
ATOM     10  O   UNL     1       4.308  -0.975   2.825  1.00  0.00    +0.000 OA
ATOM     11  H   UNL     1       3.421  -0.757   3.140  1.00  0.00    +0.000 HD
ENDBRANCH   5  10
BRANCH   1  12
ATOM     12  C   UNL     1       5.344  -2.109  -0.337  1.00  0.00    +0.000 C 
BRANCH  12  13
ATOM     13  O   UNL     1       4.863  -3.180  -1.150  1.00  0.00    +0.000 OA
ATOM     14  H   UNL     1       5.623  -3.737  -1.359  1.00  0.00    +0.000 HD
ENDBRANCH  12  13
ENDBRANCH   1  12
TORSDOF 5
ENDMDL
MODEL 5
REMARK VINA RESULT:    -5.086      1.646      2.918
REMARK INTER + INTRA:          -6.057
REMARK INTER:                  -6.020
REMARK INTRA:                  -0.037
REMARK UNBOUND:                -0.079
REMARK  Name = BDR
REMARK  5 active torsions:
REMARK  status: ('A' for Active; 'I' for Inactive)
REMARK    1  A    between atoms: C_1  and  C_9
REMARK    2  A    between atoms: C_3  and  O_4
REMARK    3  A    between atoms: C_5  and  O_6
REMARK    4  A    between atoms: C_7  and  O_8
REMARK    5  A    between atoms: C_9  and  O_10
REMARK                            x       y       z     vdW  Elec       q    Type
REMARK                         _______ _______ _______ _____ _____    ______ ____
ROOT
ATOM      1  C   UNL     1       3.995  -1.269   1.855  1.00  0.00    +0.000 C 
ATOM      2  O   UNL     1       4.344  -1.485   0.478  1.00  0.00    +0.000 OA
ATOM      3  C   UNL     1       3.130  -1.850  -0.212  1.00  0.00    +0.000 C 
ATOM      4  C   UNL     1       2.409  -2.783   0.793  1.00  0.00    +0.000 C 
ATOM      5  C   UNL     1       2.744  -2.117   2.152  1.00  0.00    +0.000 C 
ENDROOT
BRANCH   3   6
ATOM      6  O   UNL     1       3.430  -2.544  -1.424  1.00  0.00    +0.000 OA
ATOM      7  H   UNL     1       3.995  -1.962  -1.949  1.00  0.00    +0.000 HD
ENDBRANCH   3   6
BRANCH   4   8
ATOM      8  O   UNL     1       1.000  -2.788   0.562  1.00  0.00    +0.000 OA
ATOM      9  H   UNL     1       0.757  -1.892   0.294  1.00  0.00    +0.000 HD
ENDBRANCH   4   8
BRANCH   5  10
ATOM     10  O   UNL     1       1.662  -1.290   2.585  1.00  0.00    +0.000 OA
ATOM     11  H   UNL     1       1.244  -0.937   1.787  1.00  0.00    +0.000 HD
ENDBRANCH   5  10
BRANCH   1  12
ATOM     12  C   UNL     1       5.148  -1.706   2.758  1.00  0.00    +0.000 C 
BRANCH  12  13
ATOM     13  O   UNL     1       5.133  -0.936   3.961  1.00  0.00    +0.000 OA
ATOM     14  H   UNL     1       4.893  -0.034   3.714  1.00  0.00    +0.000 HD
ENDBRANCH  12  13
ENDBRANCH   1  12
TORSDOF 5
ENDMDL
MODEL 6
REMARK VINA RESULT:    -4.939      1.554      2.897
REMARK INTER + INTRA:          -5.884
REMARK INTER:                  -5.817
REMARK INTRA:                  -0.067
REMARK UNBOUND:                -0.079
REMARK  Name = BDR
REMARK  5 active torsions:
REMARK  status: ('A' for Active; 'I' for Inactive)
REMARK    1  A    between atoms: C_1  and  C_9
REMARK    2  A    between atoms: C_3  and  O_4
REMARK    3  A    between atoms: C_5  and  O_6
REMARK    4  A    between atoms: C_7  and  O_8
REMARK    5  A    between atoms: C_9  and  O_10
REMARK                            x       y       z     vdW  Elec       q    Type
REMARK                         _______ _______ _______ _____ _____    ______ ____
ROOT
ATOM      1  C   UNL     1       4.138  -2.419   1.958  1.00  0.00    +0.000 C 
ATOM      2  O   UNL     1       2.729  -2.687   2.058  1.00  0.00    +0.000 OA
ATOM      3  C   UNL     1       2.259  -2.972   0.724  1.00  0.00    +0.000 C 
ATOM      4  C   UNL     1       3.020  -1.949  -0.156  1.00  0.00    +0.000 C 
ATOM      5  C   UNL     1       4.408  -1.898   0.534  1.00  0.00    +0.000 C 
ENDROOT
BRANCH   3   6
ATOM      6  O   UNL     1       0.848  -2.768   0.634  1.00  0.00    +0.000 OA
ATOM      7  H   UNL     1       0.695  -2.195  -0.128  1.00  0.00    +0.000 HD
ENDBRANCH   3   6
BRANCH   4   8
ATOM      8  O   UNL     1       3.137  -2.420  -1.499  1.00  0.00    +0.000 OA
ATOM      9  H   UNL     1       3.180  -3.385  -1.455  1.00  0.00    +0.000 HD
ENDBRANCH   4   8
BRANCH   5  10
ATOM     10  O   UNL     1       5.338  -2.742  -0.147  1.00  0.00    +0.000 OA
ATOM     11  H   UNL     1       4.817  -3.395  -0.634  1.00  0.00    +0.000 HD
ENDBRANCH   5  10
BRANCH   1  12
ATOM     12  C   UNL     1       4.540  -1.362   2.986  1.00  0.00    +0.000 C 
BRANCH  12  13
ATOM     13  O   UNL     1       3.819  -0.154   2.738  1.00  0.00    +0.000 OA
ATOM     14  H   UNL     1       3.114  -0.109   3.397  1.00  0.00    +0.000 HD
ENDBRANCH  12  13
ENDBRANCH   1  12
TORSDOF 5
ENDMDL
MODEL 7
REMARK VINA RESULT:    -4.906      1.264      3.055
REMARK INTER + INTRA:          -5.845
REMARK INTER:                  -5.781
REMARK INTRA:                  -0.064
REMARK UNBOUND:                -0.079
REMARK  Name = BDR
REMARK  5 active torsions:
REMARK  status: ('A' for Active; 'I' for Inactive)
REMARK    1  A    between atoms: C_1  and  C_9
REMARK    2  A    between atoms: C_3  and  O_4
REMARK    3  A    between atoms: C_5  and  O_6
REMARK    4  A    between atoms: C_7  and  O_8
REMARK    5  A    between atoms: C_9  and  O_10
REMARK                            x       y       z     vdW  Elec       q    Type
REMARK                         _______ _______ _______ _____ _____    ______ ____
ROOT
ATOM      1  C   UNL     1       2.912  -2.780   0.977  1.00  0.00    +0.000 C 
ATOM      2  O   UNL     1       4.164  -2.549   0.309  1.00  0.00    +0.000 OA
ATOM      3  C   UNL     1       5.114  -2.154   1.321  1.00  0.00    +0.000 C 
ATOM      4  C   UNL     1       4.292  -1.224   2.248  1.00  0.00    +0.000 C 
ATOM      5  C   UNL     1       2.904  -1.917   2.252  1.00  0.00    +0.000 C 
ENDROOT
BRANCH   3   6
ATOM      6  O   UNL     1       6.208  -1.446   0.734  1.00  0.00    +0.000 OA
ATOM      7  H   UNL     1       6.208  -0.560   1.119  1.00  0.00    +0.000 HD
ENDBRANCH   3   6
BRANCH   4   8
ATOM      8  O   UNL     1       4.849  -1.193   3.563  1.00  0.00    +0.000 OA
ATOM      9  H   UNL     1       5.081  -2.104   3.790  1.00  0.00    +0.000 HD
ENDBRANCH   4   8
BRANCH   5  10
ATOM     10  O   UNL     1       2.755  -2.732   3.416  1.00  0.00    +0.000 OA
ATOM     11  H   UNL     1       2.374  -2.170   4.104  1.00  0.00    +0.000 HD
ENDBRANCH   5  10
BRANCH   1  12
ATOM     12  C   UNL     1       1.754  -2.375   0.065  1.00  0.00    +0.000 C 
BRANCH  12  13
ATOM     13  O   UNL     1       2.268  -1.739  -1.106  1.00  0.00    +0.000 OA
ATOM     14  H   UNL     1       2.256  -0.788  -0.937  1.00  0.00    +0.000 HD
ENDBRANCH  12  13
ENDBRANCH   1  12
TORSDOF 5
ENDMDL
MODEL 8
REMARK VINA RESULT:    -4.856     14.771     15.514
REMARK INTER + INTRA:          -5.786
REMARK INTER:                  -5.752
REMARK INTRA:                  -0.034
REMARK UNBOUND:                -0.079
REMARK  Name = BDR
REMARK  5 active torsions:
REMARK  status: ('A' for Active; 'I' for Inactive)
REMARK    1  A    between atoms: C_1  and  C_9
REMARK    2  A    between atoms: C_3  and  O_4
REMARK    3  A    between atoms: C_5  and  O_6
REMARK    4  A    between atoms: C_7  and  O_8
REMARK    5  A    between atoms: C_9  and  O_10
REMARK                            x       y       z     vdW  Elec       q    Type
REMARK                         _______ _______ _______ _____ _____    ______ ____
ROOT
ATOM      1  C   UNL     1      -7.116   6.521  -6.139  1.00  0.00    +0.000 C 
ATOM      2  O   UNL     1      -6.985   6.712  -7.558  1.00  0.00    +0.000 OA
ATOM      3  C   UNL     1      -7.428   5.492  -8.189  1.00  0.00    +0.000 C 
ATOM      4  C   UNL     1      -6.854   4.381  -7.275  1.00  0.00    +0.000 C 
ATOM      5  C   UNL     1      -7.009   5.009  -5.866  1.00  0.00    +0.000 C 
ENDROOT
BRANCH   3   6
ATOM      6  O   UNL     1      -6.894   5.387  -9.511  1.00  0.00    +0.000 OA
ATOM      7  H   UNL     1      -6.696   4.454  -9.660  1.00  0.00    +0.000 HD
ENDBRANCH   3   6
BRANCH   4   8
ATOM      8  O   UNL     1      -7.623   3.182  -7.386  1.00  0.00    +0.000 OA
ATOM      9  H   UNL     1      -7.095   2.474  -6.992  1.00  0.00    +0.000 HD
ENDBRANCH   4   8
BRANCH   5  10
ATOM     10  O   UNL     1      -8.192   4.524  -5.228  1.00  0.00    +0.000 OA
ATOM     11  H   UNL     1      -8.433   3.702  -5.677  1.00  0.00    +0.000 HD
ENDBRANCH   5  10
BRANCH   1  12
ATOM     12  C   UNL     1      -5.998   7.264  -5.409  1.00  0.00    +0.000 C 
BRANCH  12  13
ATOM     13  O   UNL     1      -5.645   8.438  -6.142  1.00  0.00    +0.000 OA
ATOM     14  H   UNL     1      -6.440   8.725  -6.611  1.00  0.00    +0.000 HD
ENDBRANCH  12  13
ENDBRANCH   1  12
TORSDOF 5
ENDMDL
MODEL 9
REMARK VINA RESULT:    -4.821      1.559      2.088
REMARK INTER + INTRA:          -5.745
REMARK INTER:                  -5.679
REMARK INTRA:                  -0.066
REMARK UNBOUND:                -0.079
REMARK  Name = BDR
REMARK  5 active torsions:
REMARK  status: ('A' for Active; 'I' for Inactive)
REMARK    1  A    between atoms: C_1  and  C_9
REMARK    2  A    between atoms: C_3  and  O_4
REMARK    3  A    between atoms: C_5  and  O_6
REMARK    4  A    between atoms: C_7  and  O_8
REMARK    5  A    between atoms: C_9  and  O_10
REMARK                            x       y       z     vdW  Elec       q    Type
REMARK                         _______ _______ _______ _____ _____    ______ ____
ROOT
ATOM      1  C   UNL     1       2.433  -1.595   0.824  1.00  0.00    +0.000 C 
ATOM      2  O   UNL     1       2.839  -1.370   2.184  1.00  0.00    +0.000 OA
ATOM      3  C   UNL     1       4.190  -0.867   2.142  1.00  0.00    +0.000 C 
ATOM      4  C   UNL     1       4.858  -1.713   1.029  1.00  0.00    +0.000 C 
ATOM      5  C   UNL     1       3.707  -1.861   0.000  1.00  0.00    +0.000 C 
ENDROOT
BRANCH   3   6
ATOM      6  O   UNL     1       4.843  -1.074   3.397  1.00  0.00    +0.000 OA
ATOM      7  H   UNL     1       5.762  -0.797   3.284  1.00  0.00    +0.000 HD
ENDBRANCH   3   6
BRANCH   4   8
ATOM      8  O   UNL     1       5.967  -1.017   0.456  1.00  0.00    +0.000 OA
ATOM      9  H   UNL     1       5.923  -1.162  -0.499  1.00  0.00    +0.000 HD
ENDBRANCH   4   8
BRANCH   5  10
ATOM     10  O   UNL     1       3.845  -0.898  -1.047  1.00  0.00    +0.000 OA
ATOM     11  H   UNL     1       3.734  -1.375  -1.880  1.00  0.00    +0.000 HD
ENDBRANCH   5  10
BRANCH   1  12
ATOM     12  C   UNL     1       1.503  -2.806   0.752  1.00  0.00    +0.000 C 
BRANCH  12  13
ATOM     13  O   UNL     1       2.273  -3.987   0.520  1.00  0.00    +0.000 OA
ATOM     14  H   UNL     1       3.194  -3.763   0.708  1.00  0.00    +0.000 HD
ENDBRANCH  12  13
ENDBRANCH   1  12
TORSDOF 5
ENDMDL
