MODEL 1
REMARK VINA RESULT:    -5.453      0.000      0.000
REMARK INTER + INTRA:          -6.779
REMARK INTER:                  -6.568
REMARK INTRA:                  -0.210
REMARK UNBOUND:                -0.210
REMARK  Name = WEB
REMARK  6 active torsions:
REMARK  status: ('A' for Active; 'I' for Inactive)
REMARK    1  A    between atoms: C_1  and  O_2
REMARK    2  A    between atoms: C_1  and  C_3
REMARK    3  A    between atoms: C_3  and  O_4
REMARK    4  A    between atoms: C_5  and  O_6
REMARK    5  A    between atoms: C_7  and  O_8
REMARK    6  A    between atoms: C_9  and  O_10
REMARK                            x       y       z     vdW  Elec       q    Type
REMARK                         _______ _______ _______ _____ _____    ______ ____
ROOT
ATOM      1  C   UNL     1       4.511  -2.035   0.280  1.00  0.00    +0.000 C 
ATOM      2  C   UNL     1       3.210  -2.789  -0.010  1.00  0.00    +0.000 C 
ATOM      3  C   UNL     1       2.167  -2.414   1.048  1.00  0.00    +0.000 C 
ATOM      4  C   UNL     1       2.727  -2.731   2.437  1.00  0.00    +0.000 C 
ATOM      5  C   UNL     1       4.047  -1.981   2.632  1.00  0.00    +0.000 C 
ATOM      6  O   UNL     1       4.962  -2.352   1.598  1.00  0.00    +0.000 OA
ENDROOT
BRANCH   1   7
ATOM      7  O   UNL     1       4.279  -0.628   0.180  1.00  0.00    +0.000 OA
ATOM      8  H   UNL     1       4.649  -0.225  -0.618  1.00  0.00    +0.000 HD
ENDBRANCH   1   7
BRANCH   2   9
ATOM      9  O   UNL     1       2.728  -2.429  -1.305  1.00  0.00    +0.000 OA
ATOM     10  H   UNL     1       1.973  -1.824  -1.290  1.00  0.00    +0.000 HD
ENDBRANCH   2   9
BRANCH   3  11
ATOM     11  O   UNL     1       1.875  -1.018   0.958  1.00  0.00    +0.000 OA
ATOM     12  H   UNL     1       2.537  -0.508   0.470  1.00  0.00    +0.000 HD
ENDBRANCH   3  11
BRANCH   4  13
ATOM     13  O   UNL     1       1.792  -2.319   3.436  1.00  0.00    +0.000 OA
ATOM     14  H   UNL     1       2.030  -1.495   3.883  1.00  0.00    +0.000 HD
ENDBRANCH   4  13
BRANCH   1  15
ATOM     15  C   UNL     1       5.577  -2.449  -0.737  1.00  0.00    +0.000 C 
BRANCH  15  16
ATOM     16  O   UNL     1       5.147  -3.627  -1.423  1.00  0.00    +0.000 OA
ATOM     17  H   UNL     1       5.370  -4.451  -0.968  1.00  0.00    +0.000 HD
ENDBRANCH  15  16
ENDBRANCH   1  15
TORSDOF 6
ENDMDL
MODEL 2
REMARK VINA RESULT:    -5.443      1.730      3.151
REMARK INTER + INTRA:          -6.767
REMARK INTER:                  -6.729
REMARK INTRA:                  -0.038
REMARK UNBOUND:                -0.210
REMARK  Name = WEB
REMARK  6 active torsions:
REMARK  status: ('A' for Active; 'I' for Inactive)
REMARK    1  A    between atoms: C_1  and  O_2
REMARK    2  A    between atoms: C_1  and  C_3
REMARK    3  A    between atoms: C_3  and  O_4
REMARK    4  A    between atoms: C_5  and  O_6
REMARK    5  A    between atoms: C_7  and  O_8
REMARK    6  A    between atoms: C_9  and  O_10
REMARK                            x       y       z     vdW  Elec       q    Type
REMARK                         _______ _______ _______ _____ _____    ______ ____
ROOT
ATOM      1  C   UNL     1       4.426  -1.551   2.646  1.00  0.00    +0.000 C 
ATOM      2  C   UNL     1       4.809  -2.139   1.285  1.00  0.00    +0.000 C 
ATOM      3  C   UNL     1       3.555  -2.238   0.410  1.00  0.00    +0.000 C 
ATOM      4  C   UNL     1       2.504  -3.084   1.136  1.00  0.00    +0.000 C 
ATOM      5  C   UNL     1       2.212  -2.460   2.503  1.00  0.00    +0.000 C 
ATOM      6  O   UNL     1       3.425  -2.369   3.253  1.00  0.00    +0.000 OA
ENDROOT
BRANCH   1   7
ATOM      7  O   UNL     1       3.918  -0.227   2.467  1.00  0.00    +0.000 OA
ATOM      8  H   UNL     1       3.855   0.048   1.542  1.00  0.00    +0.000 HD
ENDBRANCH   1   7
BRANCH   2   9
ATOM      9  O   UNL     1       5.768  -1.292   0.650  1.00  0.00    +0.000 OA
ATOM     10  H   UNL     1       6.327  -1.745   0.005  1.00  0.00    +0.000 HD
ENDBRANCH   2   9
BRANCH   3  11
ATOM     11  O   UNL     1       3.033  -0.929   0.173  1.00  0.00    +0.000 OA
ATOM     12  H   UNL     1       2.108  -0.919  -0.106  1.00  0.00    +0.000 HD
ENDBRANCH   3  11
BRANCH   4  13
ATOM     13  O   UNL     1       1.304  -3.123   0.362  1.00  0.00    +0.000 OA
ATOM     14  H   UNL     1       0.605  -2.542   0.690  1.00  0.00    +0.000 HD
ENDBRANCH   4  13
BRANCH   1  15
ATOM     15  C   UNL     1       5.663  -1.505   3.545  1.00  0.00    +0.000 C 
BRANCH  15  16
ATOM     16  O   UNL     1       5.260  -1.595   4.913  1.00  0.00    +0.000 OA
ATOM     17  H   UNL     1       5.931  -1.294   5.543  1.00  0.00    +0.000 HD
ENDBRANCH  15  16
ENDBRANCH   1  15
TORSDOF 6
ENDMDL
MODEL 3
REMARK VINA RESULT:    -5.081      1.310      3.889
REMARK INTER + INTRA:          -6.331
REMARK INTER:                  -6.267
REMARK INTRA:                  -0.063
REMARK UNBOUND:                -0.210
REMARK  Name = WEB
REMARK  6 active torsions:
REMARK  status: ('A' for Active; 'I' for Inactive)
REMARK    1  A    between atoms: C_1  and  O_2
REMARK    2  A    between atoms: C_1  and  C_3
REMARK    3  A    between atoms: C_3  and  O_4
REMARK    4  A    between atoms: C_5  and  O_6
REMARK    5  A    between atoms: C_7  and  O_8
REMARK    6  A    between atoms: C_9  and  O_10
REMARK                            x       y       z     vdW  Elec       q    Type
REMARK                         _______ _______ _______ _____ _____    ______ ____
ROOT
ATOM      1  C   UNL     1       2.387  -2.137   1.909  1.00  0.00    +0.000 C 
ATOM      2  C   UNL     1       3.762  -1.489   2.095  1.00  0.00    +0.000 C 
ATOM      3  C   UNL     1       4.493  -1.469   0.749  1.00  0.00    +0.000 C 
ATOM      4  C   UNL     1       4.592  -2.900   0.212  1.00  0.00    +0.000 C 
ATOM      5  C   UNL     1       3.186  -3.494   0.101  1.00  0.00    +0.000 C 
ATOM      6  O   UNL     1       2.550  -3.454   1.380  1.00  0.00    +0.000 OA
ENDROOT
BRANCH   1   7
ATOM      7  O   UNL     1       1.608  -1.352   1.004  1.00  0.00    +0.000 OA
ATOM      8  H   UNL     1       2.106  -0.653   0.561  1.00  0.00    +0.000 HD
ENDBRANCH   1   7
BRANCH   2   9
ATOM      9  O   UNL     1       3.599  -0.151   2.569  1.00  0.00    +0.000 OA
ATOM     10  H   UNL     1       4.317   0.154   3.140  1.00  0.00    +0.000 HD
ENDBRANCH   2   9
BRANCH   3  11
ATOM     11  O   UNL     1       3.766  -0.660  -0.179  1.00  0.00    +0.000 OA
ATOM     12  H   UNL     1       3.869  -0.931  -1.101  1.00  0.00    +0.000 HD
ENDBRANCH   3  11
BRANCH   4  13
ATOM     13  O   UNL     1       5.208  -2.886  -1.077  1.00  0.00    +0.000 OA
ATOM     14  H   UNL     1       5.212  -3.745  -1.521  1.00  0.00    +0.000 HD
ENDBRANCH   4  13
BRANCH   1  15
ATOM     15  C   UNL     1       1.674  -2.215   3.261  1.00  0.00    +0.000 C 
BRANCH  15  16
ATOM     16  O   UNL     1       2.365  -3.133   4.111  1.00  0.00    +0.000 OA
ATOM     17  H   UNL     1       2.360  -2.883   5.046  1.00  0.00    +0.000 HD
ENDBRANCH  15  16
ENDBRANCH   1  15
TORSDOF 6
ENDMDL
MODEL 4
REMARK VINA RESULT:    -4.918     12.369     13.712
REMARK INTER + INTRA:          -6.135
REMARK INTER:                  -5.904
REMARK INTRA:                  -0.231
REMARK UNBOUND:                -0.210
REMARK  Name = WEB
REMARK  6 active torsions:
REMARK  status: ('A' for Active; 'I' for Inactive)
REMARK    1  A    between atoms: C_1  and  O_2
REMARK    2  A    between atoms: C_1  and  C_3
REMARK    3  A    between atoms: C_3  and  O_4
REMARK    4  A    between atoms: C_5  and  O_6
REMARK    5  A    between atoms: C_7  and  O_8
REMARK    6  A    between atoms: C_9  and  O_10
REMARK                            x       y       z     vdW  Elec       q    Type
REMARK                         _______ _______ _______ _____ _____    ______ ____
ROOT
ATOM      1  C   UNL     1      -8.154  -9.437  -0.258  1.00  0.00    +0.000 C 
ATOM      2  C   UNL     1      -7.508  -8.201   0.373  1.00  0.00    +0.000 C 
ATOM      3  C   UNL     1      -7.673  -8.271   1.895  1.00  0.00    +0.000 C 
ATOM      4  C   UNL     1      -9.163  -8.386   2.232  1.00  0.00    +0.000 C 
ATOM      5  C   UNL     1      -9.745  -9.615   1.527  1.00  0.00    +0.000 C 
ATOM      6  O   UNL     1      -9.531  -9.500   0.119  1.00  0.00    +0.000 OA
ENDROOT
BRANCH   1   7
ATOM      7  O   UNL     1      -7.480 -10.612   0.196  1.00  0.00    +0.000 OA
ATOM      8  H   UNL     1      -7.897 -11.438  -0.084  1.00  0.00    +0.000 HD
ENDBRANCH   1   7
BRANCH   2   9
ATOM      9  O   UNL     1      -6.118  -8.167   0.045  1.00  0.00    +0.000 OA
ATOM     10  H   UNL     1      -5.727  -7.283   0.082  1.00  0.00    +0.000 HD
ENDBRANCH   2   9
BRANCH   3  11
ATOM     11  O   UNL     1      -6.980  -9.415   2.399  1.00  0.00    +0.000 OA
ATOM     12  H   UNL     1      -6.441  -9.870   1.738  1.00  0.00    +0.000 HD
ENDBRANCH   3  11
BRANCH   4  13
ATOM     13  O   UNL     1      -9.324  -8.525   3.645  1.00  0.00    +0.000 OA
ATOM     14  H   UNL     1      -8.881  -9.300   4.018  1.00  0.00    +0.000 HD
ENDBRANCH   4  13
BRANCH   1  15
ATOM     15  C   UNL     1      -8.046  -9.345  -1.782  1.00  0.00    +0.000 C 
BRANCH  15  16
ATOM     16  O   UNL     1      -6.746  -9.771  -2.193  1.00  0.00    +0.000 OA
ATOM     17  H   UNL     1      -6.090  -9.060  -2.225  1.00  0.00    +0.000 HD
ENDBRANCH  15  16
ENDBRANCH   1  15
TORSDOF 6
ENDMDL
MODEL 5
REMARK VINA RESULT:    -4.762      1.490      3.618
REMARK INTER + INTRA:          -5.946
REMARK INTER:                  -5.902
REMARK INTRA:                  -0.044
REMARK UNBOUND:                -0.210
REMARK  Name = WEB
REMARK  6 active torsions:
REMARK  status: ('A' for Active; 'I' for Inactive)
REMARK    1  A    between atoms: C_1  and  O_2
REMARK    2  A    between atoms: C_1  and  C_3
REMARK    3  A    between atoms: C_3  and  O_4
REMARK    4  A    between atoms: C_5  and  O_6
REMARK    5  A    between atoms: C_7  and  O_8
REMARK    6  A    between atoms: C_9  and  O_10
REMARK                            x       y       z     vdW  Elec       q    Type
REMARK                         _______ _______ _______ _____ _____    ______ ____
ROOT
ATOM      1  C   UNL     1       2.774  -2.151   1.076  1.00  0.00    +0.000 C 
ATOM      2  C   UNL     1       3.013  -1.382  -0.226  1.00  0.00    +0.000 C 
ATOM      3  C   UNL     1       4.474  -1.560  -0.653  1.00  0.00    +0.000 C 
ATOM      4  C   UNL     1       5.388  -1.084   0.481  1.00  0.00    +0.000 C 
ATOM      5  C   UNL     1       5.055  -1.863   1.756  1.00  0.00    +0.000 C 
ATOM      6  O   UNL     1       3.675  -1.680   2.080  1.00  0.00    +0.000 OA
ENDROOT
BRANCH   1   7
ATOM      7  O   UNL     1       2.993  -3.545   0.854  1.00  0.00    +0.000 OA
ATOM      8  H   UNL     1       2.279  -4.111   1.177  1.00  0.00    +0.000 HD
ENDBRANCH   1   7
BRANCH   2   9
ATOM      9  O   UNL     1       2.153  -1.891  -1.247  1.00  0.00    +0.000 OA
ATOM     10  H   UNL     1       1.222  -1.936  -0.989  1.00  0.00    +0.000 HD
ENDBRANCH   2   9
BRANCH   3  11
ATOM     11  O   UNL     1       4.728  -2.940  -0.923  1.00  0.00    +0.000 OA
ATOM     12  H   UNL     1       4.251  -3.549  -0.344  1.00  0.00    +0.000 HD
ENDBRANCH   3  11
BRANCH   4  13
ATOM     13  O   UNL     1       6.752  -1.312   0.124  1.00  0.00    +0.000 OA
ATOM     14  H   UNL     1       7.099  -2.166   0.418  1.00  0.00    +0.000 HD
ENDBRANCH   4  13
BRANCH   1  15
ATOM     15  C   UNL     1       1.332  -1.929   1.540  1.00  0.00    +0.000 C 
BRANCH  15  16
ATOM     16  O   UNL     1       1.331  -1.118   2.716  1.00  0.00    +0.000 OA
ATOM     17  H   UNL     1       1.547  -0.189   2.555  1.00  0.00    +0.000 HD
ENDBRANCH  15  16
ENDBRANCH   1  15
TORSDOF 6
ENDMDL
MODEL 6
REMARK VINA RESULT:    -4.526      9.260     10.491
REMARK INTER + INTRA:          -5.663
REMARK INTER:                  -5.619
REMARK INTRA:                  -0.044
REMARK UNBOUND:                -0.210
REMARK  Name = WEB
REMARK  6 active torsions:
REMARK  status: ('A' for Active; 'I' for Inactive)
REMARK    1  A    between atoms: C_1  and  O_2
REMARK    2  A    between atoms: C_1  and  C_3
REMARK    3  A    between atoms: C_3  and  O_4
REMARK    4  A    between atoms: C_5  and  O_6
REMARK    5  A    between atoms: C_7  and  O_8
REMARK    6  A    between atoms: C_9  and  O_10
REMARK                            x       y       z     vdW  Elec       q    Type
REMARK                         _______ _______ _______ _____ _____    ______ ____
ROOT
ATOM      1  C   UNL     1      12.675  -0.403   3.591  1.00  0.00    +0.000 C 
ATOM      2  C   UNL     1      12.720   0.984   4.238  1.00  0.00    +0.000 C 
ATOM      3  C   UNL     1      12.891   2.043   3.144  1.00  0.00    +0.000 C 
ATOM      4  C   UNL     1      14.159   1.734   2.342  1.00  0.00    +0.000 C 
ATOM      5  C   UNL     1      14.059   0.317   1.770  1.00  0.00    +0.000 C 
ATOM      6  O   UNL     1      13.870  -0.615   2.837  1.00  0.00    +0.000 OA
ENDROOT
BRANCH   1   7
ATOM      7  O   UNL     1      11.542  -0.488   2.724  1.00  0.00    +0.000 OA
ATOM      8  H   UNL     1      11.733  -0.891   1.867  1.00  0.00    +0.000 HD
ENDBRANCH   1   7
BRANCH   2   9
ATOM      9  O   UNL     1      11.502   1.222   4.945  1.00  0.00    +0.000 OA
ATOM     10  H   UNL     1      10.705   1.042   4.427  1.00  0.00    +0.000 HD
ENDBRANCH   2   9
BRANCH   3  11
ATOM     11  O   UNL     1      11.758   2.019   2.273  1.00  0.00    +0.000 OA
ATOM     12  H   UNL     1      11.956   2.280   1.364  1.00  0.00    +0.000 HD
ENDBRANCH   3  11
BRANCH   4  13
ATOM     13  O   UNL     1      14.291   2.672   1.273  1.00  0.00    +0.000 OA
ATOM     14  H   UNL     1      15.164   3.083   1.215  1.00  0.00    +0.000 HD
ENDBRANCH   4  13
BRANCH   1  15
ATOM     15  C   UNL     1      12.564  -1.469   4.682  1.00  0.00    +0.000 C 
BRANCH  15  16
ATOM     16  O   UNL     1      11.544  -2.406   4.330  1.00  0.00    +0.000 OA
ATOM     17  H   UNL     1      11.661  -2.806   3.456  1.00  0.00    +0.000 HD
ENDBRANCH  15  16
ENDBRANCH   1  15
TORSDOF 6
ENDMDL
MODEL 7
REMARK VINA RESULT:    -4.343      9.505     10.700
REMARK INTER + INTRA:          -5.442
REMARK INTER:                  -5.191
REMARK INTRA:                  -0.251
REMARK UNBOUND:                -0.210
REMARK  Name = WEB
REMARK  6 active torsions:
REMARK  status: ('A' for Active; 'I' for Inactive)
REMARK    1  A    between atoms: C_1  and  O_2
REMARK    2  A    between atoms: C_1  and  C_3
REMARK    3  A    between atoms: C_3  and  O_4
REMARK    4  A    between atoms: C_5  and  O_6
REMARK    5  A    between atoms: C_7  and  O_8
REMARK    6  A    between atoms: C_9  and  O_10
REMARK                            x       y       z     vdW  Elec       q    Type
REMARK                         _______ _______ _______ _____ _____    ______ ____
ROOT
ATOM      1  C   UNL     1      13.883   1.645   2.737  1.00  0.00    +0.000 C 
ATOM      2  C   UNL     1      13.875   0.124   2.565  1.00  0.00    +0.000 C 
ATOM      3  C   UNL     1      12.757  -0.472   3.427  1.00  0.00    +0.000 C 
ATOM      4  C   UNL     1      12.971  -0.052   4.884  1.00  0.00    +0.000 C 
ATOM      5  C   UNL     1      13.015   1.476   4.966  1.00  0.00    +0.000 C 
ATOM      6  O   UNL     1      14.055   1.968   4.118  1.00  0.00    +0.000 OA
ENDROOT
BRANCH   1   7
ATOM      7  O   UNL     1      12.643   2.184   2.272  1.00  0.00    +0.000 OA
ATOM      8  H   UNL     1      12.548   3.135   2.419  1.00  0.00    +0.000 HD
ENDBRANCH   1   7
BRANCH   2   9
ATOM      9  O   UNL     1      13.644  -0.201   1.193  1.00  0.00    +0.000 OA
ATOM     10  H   UNL     1      12.867  -0.757   1.046  1.00  0.00    +0.000 HD
ENDBRANCH   2   9
BRANCH   3  11
ATOM     11  O   UNL     1      11.492   0.011   2.971  1.00  0.00    +0.000 OA
ATOM     12  H   UNL     1      11.553   0.752   2.353  1.00  0.00    +0.000 HD
ENDBRANCH   3  11
BRANCH   4  13
ATOM     13  O   UNL     1      11.895  -0.542   5.686  1.00  0.00    +0.000 OA
ATOM     14  H   UNL     1      11.053  -0.089   5.536  1.00  0.00    +0.000 HD
ENDBRANCH   4  13
BRANCH   1  15
ATOM     15  C   UNL     1      15.034   2.243   1.925  1.00  0.00    +0.000 C 
BRANCH  15  16
ATOM     16  O   UNL     1      16.064   1.264   1.770  1.00  0.00    +0.000 OA
ATOM     17  H   UNL     1      15.737   0.377   1.566  1.00  0.00    +0.000 HD
ENDBRANCH  15  16
ENDBRANCH   1  15
TORSDOF 6
ENDMDL
MODEL 8
REMARK VINA RESULT:    -4.248     13.290     14.522
REMARK INTER + INTRA:          -5.328
REMARK INTER:                  -5.098
REMARK INTRA:                  -0.229
REMARK UNBOUND:                -0.210
REMARK  Name = WEB
REMARK  6 active torsions:
REMARK  status: ('A' for Active; 'I' for Inactive)
REMARK    1  A    between atoms: C_1  and  O_2
REMARK    2  A    between atoms: C_1  and  C_3
REMARK    3  A    between atoms: C_3  and  O_4
REMARK    4  A    between atoms: C_5  and  O_6
REMARK    5  A    between atoms: C_7  and  O_8
REMARK    6  A    between atoms: C_9  and  O_10
REMARK                            x       y       z     vdW  Elec       q    Type
REMARK                         _______ _______ _______ _____ _____    ______ ____
ROOT
ATOM      1  C   UNL     1      -8.507 -10.446   0.650  1.00  0.00    +0.000 C 
ATOM      2  C   UNL     1      -8.177 -10.566  -0.841  1.00  0.00    +0.000 C 
ATOM      3  C   UNL     1      -8.118  -9.165  -1.457  1.00  0.00    +0.000 C 
ATOM      4  C   UNL     1      -9.453  -8.454  -1.212  1.00  0.00    +0.000 C 
ATOM      5  C   UNL     1      -9.734  -8.417   0.293  1.00  0.00    +0.000 C 
ATOM      6  O   UNL     1      -9.745  -9.750   0.808  1.00  0.00    +0.000 OA
ENDROOT
BRANCH   1   7
ATOM      7  O   UNL     1      -7.466  -9.725   1.312  1.00  0.00    +0.000 OA
ATOM      8  H   UNL     1      -7.735  -8.854   1.634  1.00  0.00    +0.000 HD
ENDBRANCH   1   7
BRANCH   2   9
ATOM      9  O   UNL     1      -6.912 -11.211  -0.999  1.00  0.00    +0.000 OA
ATOM     10  H   UNL     1      -6.687 -11.414  -1.917  1.00  0.00    +0.000 HD
ENDBRANCH   2   9
BRANCH   3  11
ATOM     11  O   UNL     1      -7.061  -8.419  -0.848  1.00  0.00    +0.000 OA
ATOM     12  H   UNL     1      -6.523  -7.918  -1.475  1.00  0.00    +0.000 HD
ENDBRANCH   3  11
BRANCH   4  13
ATOM     13  O   UNL     1      -9.384  -7.120  -1.719  1.00  0.00    +0.000 OA
ATOM     14  H   UNL     1      -9.686  -7.030  -2.633  1.00  0.00    +0.000 HD
ENDBRANCH   4  13
BRANCH   1  15
ATOM     15  C   UNL     1      -8.627 -11.844   1.259  1.00  0.00    +0.000 C 
BRANCH  15  16
ATOM     16  O   UNL     1      -7.322 -12.354   1.539  1.00  0.00    +0.000 OA
ATOM     17  H   UNL     1      -6.967 -12.931   0.848  1.00  0.00    +0.000 HD
ENDBRANCH  15  16
ENDBRANCH   1  15
TORSDOF 6
ENDMDL
MODEL 9
REMARK VINA RESULT:    -4.222     12.861     14.338
REMARK INTER + INTRA:          -5.297
REMARK INTER:                  -5.058
REMARK INTRA:                  -0.239
REMARK UNBOUND:                -0.210
REMARK  Name = WEB
REMARK  6 active torsions:
REMARK  status: ('A' for Active; 'I' for Inactive)
REMARK    1  A    between atoms: C_1  and  O_2
REMARK    2  A    between atoms: C_1  and  C_3
REMARK    3  A    between atoms: C_3  and  O_4
REMARK    4  A    between atoms: C_5  and  O_6
REMARK    5  A    between atoms: C_7  and  O_8
REMARK    6  A    between atoms: C_9  and  O_10
REMARK                            x       y       z     vdW  Elec       q    Type
REMARK                         _______ _______ _______ _____ _____    ______ ____
ROOT
ATOM      1  C   UNL     1      -8.142  -8.747   0.351  1.00  0.00    +0.000 C 
ATOM      2  C   UNL     1      -8.512 -10.222   0.164  1.00  0.00    +0.000 C 
ATOM      3  C   UNL     1      -8.635 -10.521  -1.334  1.00  0.00    +0.000 C 
ATOM      4  C   UNL     1      -9.673  -9.578  -1.949  1.00  0.00    +0.000 C 
ATOM      5  C   UNL     1      -9.259  -8.129  -1.678  1.00  0.00    +0.000 C 
ATOM      6  O   UNL     1      -9.133  -7.926  -0.269  1.00  0.00    +0.000 OA
ENDROOT
BRANCH   1   7
ATOM      7  O   UNL     1      -6.869  -8.495  -0.247  1.00  0.00    +0.000 OA
ATOM      8  H   UNL     1      -6.329  -9.288  -0.371  1.00  0.00    +0.000 HD
ENDBRANCH   1   7
BRANCH   2   9
ATOM      9  O   UNL     1      -7.493 -11.046   0.733  1.00  0.00    +0.000 OA
ATOM     10  H   UNL     1      -7.831 -11.828   1.190  1.00  0.00    +0.000 HD
ENDBRANCH   2   9
BRANCH   3  11
ATOM     11  O   UNL     1      -7.371 -10.318  -1.968  1.00  0.00    +0.000 OA
ATOM     12  H   UNL     1      -7.089 -11.054  -2.527  1.00  0.00    +0.000 HD
ENDBRANCH   3  11
BRANCH   4  13
ATOM     13  O   UNL     1      -9.745  -9.799  -3.358  1.00  0.00    +0.000 OA
ATOM     14  H   UNL     1      -9.136 -10.476  -3.682  1.00  0.00    +0.000 HD
ENDBRANCH   4  13
BRANCH   1  15
ATOM     15  C   UNL     1      -8.076  -8.426   1.846  1.00  0.00    +0.000 C 
BRANCH  15  16
ATOM     16  O   UNL     1      -6.749  -8.658   2.324  1.00  0.00    +0.000 OA
ATOM     17  H   UNL     1      -6.102  -8.825   1.624  1.00  0.00    +0.000 HD
ENDBRANCH  15  16
ENDBRANCH   1  15
TORSDOF 6
ENDMDL
