MODEL 1
REMARK VINA RESULT:    -5.711      0.000      0.000
REMARK INTER + INTRA:          -6.792
REMARK INTER:                  -6.713
REMARK INTRA:                  -0.078
REMARK UNBOUND:                -0.078
REMARK  Name = BDR
REMARK  5 active torsions:
REMARK  status: ('A' for Active; 'I' for Inactive)
REMARK    1  A    between atoms: C_1  and  C_9
REMARK    2  A    between atoms: C_3  and  O_4
REMARK    3  A    between atoms: C_5  and  O_6
REMARK    4  A    between atoms: C_7  and  O_8
REMARK    5  A    between atoms: C_9  and  O_10
REMARK                            x       y       z     vdW  Elec       q    Type
REMARK                         _______ _______ _______ _____ _____    ______ ____
ROOT
ATOM      1  C   UNL     1       2.812  -1.350   1.114  1.00  0.00    +0.000 C 
ATOM      2  O   UNL     1       4.139  -1.060   1.582  1.00  0.00    +0.000 OA
ATOM      3  C   UNL     1       5.053  -1.497   0.554  1.00  0.00    +0.000 C 
ATOM      4  C   UNL     1       4.438  -2.832   0.066  1.00  0.00    +0.000 C 
ATOM      5  C   UNL     1       2.918  -2.531   0.131  1.00  0.00    +0.000 C 
ENDROOT
BRANCH   3   6
ATOM      6  O   UNL     1       6.358  -1.709   1.098  1.00  0.00    +0.000 OA
ATOM      7  H   UNL     1       6.587  -0.913   1.594  1.00  0.00    +0.000 HD
ENDBRANCH   3   6
BRANCH   4   8
ATOM      8  O   UNL     1       4.843  -3.120  -1.274  1.00  0.00    +0.000 OA
ATOM      9  H   UNL     1       4.309  -3.869  -1.572  1.00  0.00    +0.000 HD
ENDBRANCH   4   8
BRANCH   5  10
ATOM     10  O   UNL     1       2.424  -2.164  -1.159  1.00  0.00    +0.000 OA
ATOM     11  H   UNL     1       2.324  -1.202  -1.155  1.00  0.00    +0.000 HD
ENDBRANCH   5  10
BRANCH   1  12
ATOM     12  C   UNL     1       1.917  -1.732   2.293  1.00  0.00    +0.000 C 
BRANCH  12  13
ATOM     13  O   UNL     1       2.626  -2.612   3.167  1.00  0.00    +0.000 OA
ATOM     14  H   UNL     1       3.420  -2.895   2.696  1.00  0.00    +0.000 HD
ENDBRANCH  12  13
ENDBRANCH   1  12
TORSDOF 5
ENDMDL
MODEL 2
REMARK VINA RESULT:    -5.598      1.415      3.320
REMARK INTER + INTRA:          -6.658
REMARK INTER:                  -6.639
REMARK INTRA:                  -0.019
REMARK UNBOUND:                -0.078
REMARK  Name = BDR
REMARK  5 active torsions:
REMARK  status: ('A' for Active; 'I' for Inactive)
REMARK    1  A    between atoms: C_1  and  C_9
REMARK    2  A    between atoms: C_3  and  O_4
REMARK    3  A    between atoms: C_5  and  O_6
REMARK    4  A    between atoms: C_7  and  O_8
REMARK    5  A    between atoms: C_9  and  O_10
REMARK                            x       y       z     vdW  Elec       q    Type
REMARK                         _______ _______ _______ _____ _____    ______ ____
ROOT
ATOM      1  C   UNL     1       4.117  -2.852   0.325  1.00  0.00    +0.000 C 
ATOM      2  O   UNL     1       4.945  -2.395   1.407  1.00  0.00    +0.000 OA
ATOM      3  C   UNL     1       4.060  -1.960   2.460  1.00  0.00    +0.000 C 
ATOM      4  C   UNL     1       2.922  -1.234   1.700  1.00  0.00    +0.000 C 
ATOM      5  C   UNL     1       2.772  -2.108   0.428  1.00  0.00    +0.000 C 
ENDROOT
BRANCH   3   6
ATOM      6  O   UNL     1       4.733  -1.061   3.344  1.00  0.00    +0.000 OA
ATOM      7  H   UNL     1       5.117  -0.364   2.796  1.00  0.00    +0.000 HD
ENDBRANCH   3   6
BRANCH   4   8
ATOM      8  O   UNL     1       1.715  -1.237   2.465  1.00  0.00    +0.000 OA
ATOM      9  H   UNL     1       1.687  -0.399   2.946  1.00  0.00    +0.000 HD
ENDBRANCH   4   8
BRANCH   5  10
ATOM     10  O   UNL     1       1.692  -3.031   0.579  1.00  0.00    +0.000 OA
ATOM     11  H   UNL     1       1.940  -3.833   0.099  1.00  0.00    +0.000 HD
ENDBRANCH   5  10
BRANCH   1  12
ATOM     12  C   UNL     1       4.787  -2.535  -1.012  1.00  0.00    +0.000 C 
BRANCH  12  13
ATOM     13  O   UNL     1       5.131  -3.752  -1.676  1.00  0.00    +0.000 OA
ATOM     14  H   UNL     1       5.809  -4.182  -1.140  1.00  0.00    +0.000 HD
ENDBRANCH  12  13
ENDBRANCH   1  12
TORSDOF 5
ENDMDL
MODEL 3
REMARK VINA RESULT:    -5.438      1.245      2.548
REMARK INTER + INTRA:          -6.470
REMARK INTER:                  -6.407
REMARK INTRA:                  -0.063
REMARK UNBOUND:                -0.078
REMARK  Name = BDR
REMARK  5 active torsions:
REMARK  status: ('A' for Active; 'I' for Inactive)
REMARK    1  A    between atoms: C_1  and  C_9
REMARK    2  A    between atoms: C_3  and  O_4
REMARK    3  A    between atoms: C_5  and  O_6
REMARK    4  A    between atoms: C_7  and  O_8
REMARK    5  A    between atoms: C_9  and  O_10
REMARK                            x       y       z     vdW  Elec       q    Type
REMARK                         _______ _______ _______ _____ _____    ______ ____
ROOT
ATOM      1  C   UNL     1       3.091  -2.538   1.603  1.00  0.00    +0.000 C 
ATOM      2  O   UNL     1       3.213  -3.221   0.345  1.00  0.00    +0.000 OA
ATOM      3  C   UNL     1       4.557  -2.994  -0.129  1.00  0.00    +0.000 C 
ATOM      4  C   UNL     1       4.823  -1.511   0.229  1.00  0.00    +0.000 C 
ATOM      5  C   UNL     1       4.100  -1.373   1.594  1.00  0.00    +0.000 C 
ENDROOT
BRANCH   3   6
ATOM      6  O   UNL     1       4.633  -3.196  -1.542  1.00  0.00    +0.000 OA
ATOM      7  H   UNL     1       4.291  -2.395  -1.959  1.00  0.00    +0.000 HD
ENDBRANCH   3   6
BRANCH   4   8
ATOM      8  O   UNL     1       6.223  -1.263   0.368  1.00  0.00    +0.000 OA
ATOM      9  H   UNL     1       6.357  -0.903   1.255  1.00  0.00    +0.000 HD
ENDBRANCH   4   8
BRANCH   5  10
ATOM     10  O   UNL     1       5.032  -1.502   2.670  1.00  0.00    +0.000 OA
ATOM     11  H   UNL     1       5.233  -0.606   2.974  1.00  0.00    +0.000 HD
ENDBRANCH   5  10
BRANCH   1  12
ATOM     12  C   UNL     1       1.671  -1.996   1.765  1.00  0.00    +0.000 C 
BRANCH  12  13
ATOM     13  O   UNL     1       1.667  -0.944   2.730  1.00  0.00    +0.000 OA
ATOM     14  H   UNL     1       2.510  -0.990   3.199  1.00  0.00    +0.000 HD
ENDBRANCH  12  13
ENDBRANCH   1  12
TORSDOF 5
ENDMDL
MODEL 4
REMARK VINA RESULT:    -5.179      1.338      3.899
REMARK INTER + INTRA:          -6.166
REMARK INTER:                  -6.092
REMARK INTRA:                  -0.074
REMARK UNBOUND:                -0.078
REMARK  Name = BDR
REMARK  5 active torsions:
REMARK  status: ('A' for Active; 'I' for Inactive)
REMARK    1  A    between atoms: C_1  and  C_9
REMARK    2  A    between atoms: C_3  and  O_4
REMARK    3  A    between atoms: C_5  and  O_6
REMARK    4  A    between atoms: C_7  and  O_8
REMARK    5  A    between atoms: C_9  and  O_10
REMARK                            x       y       z     vdW  Elec       q    Type
REMARK                         _______ _______ _______ _____ _____    ______ ____
ROOT
ATOM      1  C   UNL     1       4.194  -1.477   0.448  1.00  0.00    +0.000 C 
ATOM      2  O   UNL     1       2.941  -1.830  -0.162  1.00  0.00    +0.000 OA
ATOM      3  C   UNL     1       1.989  -2.011   0.906  1.00  0.00    +0.000 C 
ATOM      4  C   UNL     1       2.805  -2.742   2.001  1.00  0.00    +0.000 C 
ATOM      5  C   UNL     1       4.197  -2.070   1.870  1.00  0.00    +0.000 C 
ENDROOT
BRANCH   3   6
ATOM      6  O   UNL     1       0.891  -2.816   0.471  1.00  0.00    +0.000 OA
ATOM      7  H   UNL     1       0.772  -3.510   1.132  1.00  0.00    +0.000 HD
ENDBRANCH   3   6
BRANCH   4   8
ATOM      8  O   UNL     1       2.247  -2.507   3.295  1.00  0.00    +0.000 OA
ATOM      9  H   UNL     1       1.348  -2.862   3.280  1.00  0.00    +0.000 HD
ENDBRANCH   4   8
BRANCH   5  10
ATOM     10  O   UNL     1       4.349  -1.039   2.848  1.00  0.00    +0.000 OA
ATOM     11  H   UNL     1       4.173  -0.201   2.401  1.00  0.00    +0.000 HD
ENDBRANCH   5  10
BRANCH   1  12
ATOM     12  C   UNL     1       5.350  -2.062  -0.363  1.00  0.00    +0.000 C 
BRANCH  12  13
ATOM     13  O   UNL     1       4.875  -3.149  -1.158  1.00  0.00    +0.000 OA
ATOM     14  H   UNL     1       4.728  -3.892  -0.558  1.00  0.00    +0.000 HD
ENDBRANCH  12  13
ENDBRANCH   1  12
TORSDOF 5
ENDMDL
MODEL 5
REMARK VINA RESULT:    -5.094      1.641      2.968
REMARK INTER + INTRA:          -6.066
REMARK INTER:                  -6.028
REMARK INTRA:                  -0.038
REMARK UNBOUND:                -0.078
REMARK  Name = BDR
REMARK  5 active torsions:
REMARK  status: ('A' for Active; 'I' for Inactive)
REMARK    1  A    between atoms: C_1  and  C_9
REMARK    2  A    between atoms: C_3  and  O_4
REMARK    3  A    between atoms: C_5  and  O_6
REMARK    4  A    between atoms: C_7  and  O_8
REMARK    5  A    between atoms: C_9  and  O_10
REMARK                            x       y       z     vdW  Elec       q    Type
REMARK                         _______ _______ _______ _____ _____    ______ ____
ROOT
ATOM      1  C   UNL     1       3.991  -1.238   1.850  1.00  0.00    +0.000 C 
ATOM      2  O   UNL     1       4.319  -1.460   0.468  1.00  0.00    +0.000 OA
ATOM      3  C   UNL     1       3.087  -1.780  -0.211  1.00  0.00    +0.000 C 
ATOM      4  C   UNL     1       2.344  -2.693   0.796  1.00  0.00    +0.000 C 
ATOM      5  C   UNL     1       2.715  -2.045   2.155  1.00  0.00    +0.000 C 
ENDROOT
BRANCH   3   6
ATOM      6  O   UNL     1       3.351  -2.478  -1.429  1.00  0.00    +0.000 OA
ATOM      7  H   UNL     1       3.914  -1.904  -1.965  1.00  0.00    +0.000 HD
ENDBRANCH   3   6
BRANCH   4   8
ATOM      8  O   UNL     1       0.932  -2.648   0.579  1.00  0.00    +0.000 OA
ATOM      9  H   UNL     1       0.525  -3.173   1.282  1.00  0.00    +0.000 HD
ENDBRANCH   4   8
BRANCH   5  10
ATOM     10  O   UNL     1       1.665  -1.183   2.602  1.00  0.00    +0.000 OA
ATOM     11  H   UNL     1       1.985  -0.277   2.498  1.00  0.00    +0.000 HD
ENDBRANCH   5  10
BRANCH   1  12
ATOM     12  C   UNL     1       5.137  -1.719   2.740  1.00  0.00    +0.000 C 
BRANCH  12  13
ATOM     13  O   UNL     1       5.142  -0.975   3.958  1.00  0.00    +0.000 OA
ATOM     14  H   UNL     1       5.888  -0.364   3.911  1.00  0.00    +0.000 HD
ENDBRANCH  12  13
ENDBRANCH   1  12
TORSDOF 5
ENDMDL
MODEL 6
REMARK VINA RESULT:    -4.966      1.480      3.277
REMARK INTER + INTRA:          -5.915
REMARK INTER:                  -5.854
REMARK INTRA:                  -0.061
REMARK UNBOUND:                -0.078
REMARK  Name = BDR
REMARK  5 active torsions:
REMARK  status: ('A' for Active; 'I' for Inactive)
REMARK    1  A    between atoms: C_1  and  C_9
REMARK    2  A    between atoms: C_3  and  O_4
REMARK    3  A    between atoms: C_5  and  O_6
REMARK    4  A    between atoms: C_7  and  O_8
REMARK    5  A    between atoms: C_9  and  O_10
REMARK                            x       y       z     vdW  Elec       q    Type
REMARK                         _______ _______ _______ _____ _____    ______ ____
ROOT
ATOM      1  C   UNL     1       4.534  -2.486   1.343  1.00  0.00    +0.000 C 
ATOM      2  O   UNL     1       3.888  -1.683   2.345  1.00  0.00    +0.000 OA
ATOM      3  C   UNL     1       2.469  -1.916   2.221  1.00  0.00    +0.000 C 
ATOM      4  C   UNL     1       2.243  -1.972   0.689  1.00  0.00    +0.000 C 
ATOM      5  C   UNL     1       3.524  -2.696   0.199  1.00  0.00    +0.000 C 
ENDROOT
BRANCH   3   6
ATOM      6  O   UNL     1       1.730  -0.841   2.804  1.00  0.00    +0.000 OA
ATOM      7  H   UNL     1       2.355  -0.119   2.954  1.00  0.00    +0.000 HD
ENDBRANCH   3   6
BRANCH   4   8
ATOM      8  O   UNL     1       1.076  -2.733   0.374  1.00  0.00    +0.000 OA
ATOM      9  H   UNL     1       0.516  -2.170  -0.178  1.00  0.00    +0.000 HD
ENDBRANCH   4   8
BRANCH   5  10
ATOM     10  O   UNL     1       3.266  -4.087  -0.001  1.00  0.00    +0.000 OA
ATOM     11  H   UNL     1       3.225  -4.229  -0.957  1.00  0.00    +0.000 HD
ENDBRANCH   5  10
BRANCH   1  12
ATOM     12  C   UNL     1       5.774  -1.763   0.817  1.00  0.00    +0.000 C 
BRANCH  12  13
ATOM     13  O   UNL     1       5.376  -0.610   0.074  1.00  0.00    +0.000 OA
ATOM     14  H   UNL     1       6.169  -0.073  -0.056  1.00  0.00    +0.000 HD
ENDBRANCH  12  13
ENDBRANCH   1  12
TORSDOF 5
ENDMDL
MODEL 7
REMARK VINA RESULT:    -4.937      1.545      2.903
REMARK INTER + INTRA:          -5.881
REMARK INTER:                  -5.816
REMARK INTRA:                  -0.065
REMARK UNBOUND:                -0.078
REMARK  Name = BDR
REMARK  5 active torsions:
REMARK  status: ('A' for Active; 'I' for Inactive)
REMARK    1  A    between atoms: C_1  and  C_9
REMARK    2  A    between atoms: C_3  and  O_4
REMARK    3  A    between atoms: C_5  and  O_6
REMARK    4  A    between atoms: C_7  and  O_8
REMARK    5  A    between atoms: C_9  and  O_10
REMARK                            x       y       z     vdW  Elec       q    Type
REMARK                         _______ _______ _______ _____ _____    ______ ____
ROOT
ATOM      1  C   UNL     1       4.135  -2.399   1.966  1.00  0.00    +0.000 C 
ATOM      2  O   UNL     1       2.732  -2.693   2.064  1.00  0.00    +0.000 OA
ATOM      3  C   UNL     1       2.268  -2.982   0.728  1.00  0.00    +0.000 C 
ATOM      4  C   UNL     1       3.010  -1.942  -0.147  1.00  0.00    +0.000 C 
ATOM      5  C   UNL     1       4.397  -1.867   0.544  1.00  0.00    +0.000 C 
ENDROOT
BRANCH   3   6
ATOM      6  O   UNL     1       0.853  -2.804   0.638  1.00  0.00    +0.000 OA
ATOM      7  H   UNL     1       0.574  -3.199  -0.199  1.00  0.00    +0.000 HD
ENDBRANCH   3   6
BRANCH   4   8
ATOM      8  O   UNL     1       3.137  -2.405  -1.493  1.00  0.00    +0.000 OA
ATOM      9  H   UNL     1       4.002  -2.830  -1.561  1.00  0.00    +0.000 HD
ENDBRANCH   4   8
BRANCH   5  10
ATOM     10  O   UNL     1       5.342  -2.691  -0.140  1.00  0.00    +0.000 OA
ATOM     11  H   UNL     1       5.223  -3.590   0.195  1.00  0.00    +0.000 HD
ENDBRANCH   5  10
BRANCH   1  12
ATOM     12  C   UNL     1       4.517  -1.338   2.998  1.00  0.00    +0.000 C 
BRANCH  12  13
ATOM     13  O   UNL     1       3.806  -0.130   2.728  1.00  0.00    +0.000 OA
ATOM     14  H   UNL     1       4.457   0.583   2.720  1.00  0.00    +0.000 HD
ENDBRANCH  12  13
ENDBRANCH   1  12
TORSDOF 5
ENDMDL
MODEL 8
REMARK VINA RESULT:    -4.865     14.793     15.519
REMARK INTER + INTRA:          -5.797
REMARK INTER:                  -5.765
REMARK INTRA:                  -0.032
REMARK UNBOUND:                -0.078
REMARK  Name = BDR
REMARK  5 active torsions:
REMARK  status: ('A' for Active; 'I' for Inactive)
REMARK    1  A    between atoms: C_1  and  C_9
REMARK    2  A    between atoms: C_3  and  O_4
REMARK    3  A    between atoms: C_5  and  O_6
REMARK    4  A    between atoms: C_7  and  O_8
REMARK    5  A    between atoms: C_9  and  O_10
REMARK                            x       y       z     vdW  Elec       q    Type
REMARK                         _______ _______ _______ _____ _____    ______ ____
ROOT
ATOM      1  C   UNL     1      -7.138   6.475  -6.139  1.00  0.00    +0.000 C 
ATOM      2  O   UNL     1      -6.983   6.679  -7.554  1.00  0.00    +0.000 OA
ATOM      3  C   UNL     1      -7.418   5.466  -8.204  1.00  0.00    +0.000 C 
ATOM      4  C   UNL     1      -6.861   4.345  -7.291  1.00  0.00    +0.000 C 
ATOM      5  C   UNL     1      -7.037   4.960  -5.878  1.00  0.00    +0.000 C 
ENDROOT
BRANCH   3   6
ATOM      6  O   UNL     1      -6.863   5.373  -9.518  1.00  0.00    +0.000 OA
ATOM      7  H   UNL     1      -7.493   4.874 -10.054  1.00  0.00    +0.000 HD
ENDBRANCH   3   6
BRANCH   4   8
ATOM      8  O   UNL     1      -7.631   3.149  -7.425  1.00  0.00    +0.000 OA
ATOM      9  H   UNL     1      -7.335   2.547  -6.729  1.00  0.00    +0.000 HD
ENDBRANCH   4   8
BRANCH   5  10
ATOM     10  O   UNL     1      -8.232   4.471  -5.265  1.00  0.00    +0.000 OA
ATOM     11  H   UNL     1      -8.961   5.002  -5.611  1.00  0.00    +0.000 HD
ENDBRANCH   5  10
BRANCH   1  12
ATOM     12  C   UNL     1      -6.030   7.208  -5.384  1.00  0.00    +0.000 C 
BRANCH  12  13
ATOM     13  O   UNL     1      -5.706   8.420  -6.068  1.00  0.00    +0.000 OA
ATOM     14  H   UNL     1      -6.532   8.769  -6.426  1.00  0.00    +0.000 HD
ENDBRANCH  12  13
ENDBRANCH   1  12
TORSDOF 5
ENDMDL
MODEL 9
REMARK VINA RESULT:    -4.809      1.548      2.053
REMARK INTER + INTRA:          -5.731
REMARK INTER:                  -5.663
REMARK INTRA:                  -0.068
REMARK UNBOUND:                -0.078
REMARK  Name = BDR
REMARK  5 active torsions:
REMARK  status: ('A' for Active; 'I' for Inactive)
REMARK    1  A    between atoms: C_1  and  C_9
REMARK    2  A    between atoms: C_3  and  O_4
REMARK    3  A    between atoms: C_5  and  O_6
REMARK    4  A    between atoms: C_7  and  O_8
REMARK    5  A    between atoms: C_9  and  O_10
REMARK                            x       y       z     vdW  Elec       q    Type
REMARK                         _______ _______ _______ _____ _____    ______ ____
ROOT
ATOM      1  C   UNL     1       2.416  -1.614   0.833  1.00  0.00    +0.000 C 
ATOM      2  O   UNL     1       2.836  -1.363   2.184  1.00  0.00    +0.000 OA
ATOM      3  C   UNL     1       4.178  -0.838   2.117  1.00  0.00    +0.000 C 
ATOM      4  C   UNL     1       4.845  -1.688   1.007  1.00  0.00    +0.000 C 
ATOM      5  C   UNL     1       3.684  -1.869  -0.004  1.00  0.00    +0.000 C 
ENDROOT
BRANCH   3   6
ATOM      6  O   UNL     1       4.851  -1.017   3.366  1.00  0.00    +0.000 OA
ATOM      7  H   UNL     1       4.823  -1.961   3.567  1.00  0.00    +0.000 HD
ENDBRANCH   3   6
BRANCH   4   8
ATOM      8  O   UNL     1       5.934  -0.982   0.410  1.00  0.00    +0.000 OA
ATOM      9  H   UNL     1       6.393  -0.519   1.125  1.00  0.00    +0.000 HD
ENDBRANCH   4   8
BRANCH   5  10
ATOM     10  O   UNL     1       3.791  -0.919  -1.066  1.00  0.00    +0.000 OA
ATOM     11  H   UNL     1       4.143  -1.394  -1.831  1.00  0.00    +0.000 HD
ENDBRANCH   5  10
BRANCH   1  12
ATOM     12  C   UNL     1       1.507  -2.842   0.790  1.00  0.00    +0.000 C 
BRANCH  12  13
ATOM     13  O   UNL     1       2.288  -4.007   0.521  1.00  0.00    +0.000 OA
ATOM     14  H   UNL     1       3.147  -3.701   0.202  1.00  0.00    +0.000 HD
ENDBRANCH  12  13
ENDBRANCH   1  12
TORSDOF 5
ENDMDL
