MODEL 1
REMARK VINA RESULT:    -4.976      0.000      0.000
REMARK INTER + INTRA:          -6.465
REMARK INTER:                  -6.430
REMARK INTRA:                  -0.035
REMARK UNBOUND:                -0.035
REMARK  Name = 3VB
REMARK  7 active torsions:
REMARK  status: ('A' for Active; 'I' for Inactive)
REMARK    1  A    between atoms: O_1  and  C_2
REMARK    2  A    between atoms: C_2  and  C_3
REMARK    3  A    between atoms: C_3  and  O_4
REMARK    4  A    between atoms: C_3  and  C_5
REMARK    5  A    between atoms: C_5  and  O_6
REMARK    6  A    between atoms: C_5  and  C_7
REMARK    7  A    between atoms: C_7  and  O_8
REMARK                            x       y       z     vdW  Elec       q    Type
REMARK                         _______ _______ _______ _____ _____    ______ ____
ROOT
ATOM      1  C   UNL A   1       3.780  -1.975  -0.260  1.00  0.00    +0.000 C 
ENDROOT
BRANCH   1   2
ATOM      2  O   UNL A   1       2.853  -2.352  -1.280  1.00  0.00    +0.000 OA
ATOM      3  H   UNL A   1       3.177  -2.206  -2.179  1.00  0.00    +0.000 HD
ENDBRANCH   1   2
BRANCH   1   4
ATOM      4  C   UNL A   1       5.050  -2.817  -0.388  1.00  0.00    +0.000 C 
BRANCH   4   5
ATOM      5  O   UNL A   1       4.943  -3.672  -1.528  1.00  0.00    +0.000 OA
ATOM      6  H   UNL A   1       5.411  -3.348  -2.309  1.00  0.00    +0.000 HD
ENDBRANCH   4   5
ENDBRANCH   1   4
BRANCH   1   7
ATOM      7  C   UNL A   1       3.149  -2.210   1.115  1.00  0.00    +0.000 C 
BRANCH   7   8
ATOM      8  O   UNL A   1       1.931  -1.469   1.213  1.00  0.00    +0.000 OA
ATOM      9  H   UNL A   1       1.293  -1.842   1.836  1.00  0.00    +0.000 HD
ENDBRANCH   7   8
BRANCH   7  10
ATOM     10  C   UNL A   1       4.117  -1.750   2.206  1.00  0.00    +0.000 C 
BRANCH  10  11
ATOM     11  O   UNL A   1       3.828  -0.396   2.560  1.00  0.00    +0.000 OA
ATOM     12  H   UNL A   1       4.341   0.258   2.067  1.00  0.00    +0.000 HD
ENDBRANCH  10  11
ENDBRANCH   7  10
ENDBRANCH   1   7
TORSDOF 7
ENDMDL
MODEL 2
REMARK VINA RESULT:    -4.976      0.073      3.450
REMARK INTER + INTRA:          -6.465
REMARK INTER:                  -6.430
REMARK INTRA:                  -0.035
REMARK UNBOUND:                -0.035
REMARK  Name = 3VB
REMARK  7 active torsions:
REMARK  status: ('A' for Active; 'I' for Inactive)
REMARK    1  A    between atoms: O_1  and  C_2
REMARK    2  A    between atoms: C_2  and  C_3
REMARK    3  A    between atoms: C_3  and  O_4
REMARK    4  A    between atoms: C_3  and  C_5
REMARK    5  A    between atoms: C_5  and  O_6
REMARK    6  A    between atoms: C_5  and  C_7
REMARK    7  A    between atoms: C_7  and  O_8
REMARK                            x       y       z     vdW  Elec       q    Type
REMARK                         _______ _______ _______ _____ _____    ______ ____
ROOT
ATOM      1  C   UNL A   1       3.125  -2.133   1.121  1.00  0.00    +0.000 C 
ENDROOT
BRANCH   1   2
ATOM      2  O   UNL A   1       1.916  -1.377   1.212  1.00  0.00    +0.000 OA
ATOM      3  H   UNL A   1       1.272  -1.579   0.520  1.00  0.00    +0.000 HD
ENDBRANCH   1   2
BRANCH   1   4
ATOM      4  C   UNL A   1       4.099  -1.674   2.208  1.00  0.00    +0.000 C 
BRANCH   4   5
ATOM      5  O   UNL A   1       3.828  -0.312   2.546  1.00  0.00    +0.000 OA
ATOM      6  H   UNL A   1       4.619   0.218   2.712  1.00  0.00    +0.000 HD
ENDBRANCH   4   5
ENDBRANCH   1   4
BRANCH   1   7
ATOM      7  C   UNL A   1       3.759  -1.917  -0.256  1.00  0.00    +0.000 C 
BRANCH   7   8
ATOM      8  O   UNL A   1       2.830  -2.295  -1.273  1.00  0.00    +0.000 OA
ATOM      9  H   UNL A   1       2.687  -1.617  -1.947  1.00  0.00    +0.000 HD
ENDBRANCH   7   8
BRANCH   7  10
ATOM     10  C   UNL A   1       5.023  -2.770  -0.375  1.00  0.00    +0.000 C 
BRANCH  10  11
ATOM     11  O   UNL A   1       4.911  -3.631  -1.510  1.00  0.00    +0.000 OA
ATOM     12  H   UNL A   1       4.017  -3.963  -1.667  1.00  0.00    +0.000 HD
ENDBRANCH  10  11
ENDBRANCH   7  10
ENDBRANCH   1   7
TORSDOF 7
ENDMDL
MODEL 3
REMARK VINA RESULT:    -4.922      1.491      2.895
REMARK INTER + INTRA:          -6.395
REMARK INTER:                  -5.750
REMARK INTRA:                  -0.645
REMARK UNBOUND:                -0.035
REMARK  Name = 3VB
REMARK  7 active torsions:
REMARK  status: ('A' for Active; 'I' for Inactive)
REMARK    1  A    between atoms: O_1  and  C_2
REMARK    2  A    between atoms: C_2  and  C_3
REMARK    3  A    between atoms: C_3  and  O_4
REMARK    4  A    between atoms: C_3  and  C_5
REMARK    5  A    between atoms: C_5  and  O_6
REMARK    6  A    between atoms: C_5  and  C_7
REMARK    7  A    between atoms: C_7  and  O_8
REMARK                            x       y       z     vdW  Elec       q    Type
REMARK                         _______ _______ _______ _____ _____    ______ ____
ROOT
ATOM      1  C   UNL A   1       3.963  -2.184   1.874  1.00  0.00    +0.000 C 
ENDROOT
BRANCH   1   2
ATOM      2  O   UNL A   1       3.295  -0.950   2.141  1.00  0.00    +0.000 OA
ATOM      3  H   UNL A   1       2.368  -1.052   2.395  1.00  0.00    +0.000 HD
ENDBRANCH   1   2
BRANCH   1   4
ATOM      4  C   UNL A   1       5.284  -1.904   1.153  1.00  0.00    +0.000 C 
BRANCH   4   5
ATOM      5  O   UNL A   1       5.108  -0.822   0.238  1.00  0.00    +0.000 OA
ATOM      6  H   UNL A   1       4.485  -0.147   0.540  1.00  0.00    +0.000 HD
ENDBRANCH   4   5
ENDBRANCH   1   4
BRANCH   1   7
ATOM      7  C   UNL A   1       3.076  -3.063   0.989  1.00  0.00    +0.000 C 
BRANCH   7   8
ATOM      8  O   UNL A   1       3.853  -3.596  -0.085  1.00  0.00    +0.000 OA
ATOM      9  H   UNL A   1       4.787  -3.725   0.131  1.00  0.00    +0.000 HD
ENDBRANCH   7   8
BRANCH   7  10
ATOM     10  C   UNL A   1       1.929  -2.224   0.423  1.00  0.00    +0.000 C 
BRANCH  10  11
ATOM     11  O   UNL A   1       2.333  -1.637  -0.815  1.00  0.00    +0.000 OA
ATOM     12  H   UNL A   1       3.120  -1.080  -0.748  1.00  0.00    +0.000 HD
ENDBRANCH  10  11
ENDBRANCH   7  10
ENDBRANCH   1   7
TORSDOF 7
ENDMDL
MODEL 4
REMARK VINA RESULT:    -4.891      1.495      2.348
REMARK INTER + INTRA:          -6.356
REMARK INTER:                  -5.725
REMARK INTRA:                  -0.632
REMARK UNBOUND:                -0.035
REMARK  Name = 3VB
REMARK  7 active torsions:
REMARK  status: ('A' for Active; 'I' for Inactive)
REMARK    1  A    between atoms: O_1  and  C_2
REMARK    2  A    between atoms: C_2  and  C_3
REMARK    3  A    between atoms: C_3  and  O_4
REMARK    4  A    between atoms: C_3  and  C_5
REMARK    5  A    between atoms: C_5  and  O_6
REMARK    6  A    between atoms: C_5  and  C_7
REMARK    7  A    between atoms: C_7  and  O_8
REMARK                            x       y       z     vdW  Elec       q    Type
REMARK                         _______ _______ _______ _____ _____    ______ ____
ROOT
ATOM      1  C   UNL A   1       3.001  -2.992   1.006  1.00  0.00    +0.000 C 
ENDROOT
BRANCH   1   2
ATOM      2  O   UNL A   1       3.752  -3.540  -0.079  1.00  0.00    +0.000 OA
ATOM      3  H   UNL A   1       4.259  -2.884  -0.577  1.00  0.00    +0.000 HD
ENDBRANCH   1   2
BRANCH   1   4
ATOM      4  C   UNL A   1       1.884  -2.103   0.457  1.00  0.00    +0.000 C 
BRANCH   4   5
ATOM      5  O   UNL A   1       2.293  -1.541  -0.792  1.00  0.00    +0.000 OA
ATOM      6  H   UNL A   1       3.211  -1.241  -0.807  1.00  0.00    +0.000 HD
ENDBRANCH   4   5
ENDBRANCH   1   4
BRANCH   1   7
ATOM      7  C   UNL A   1       3.926  -2.158   1.897  1.00  0.00    +0.000 C 
BRANCH   7   8
ATOM      8  O   UNL A   1       3.307  -0.902   2.182  1.00  0.00    +0.000 OA
ATOM      9  H   UNL A   1       3.334  -0.654   3.117  1.00  0.00    +0.000 HD
ENDBRANCH   7   8
BRANCH   7  10
ATOM     10  C   UNL A   1       5.253  -1.920   1.173  1.00  0.00    +0.000 C 
BRANCH  10  11
ATOM     11  O   UNL A   1       5.112  -0.825   0.266  1.00  0.00    +0.000 OA
ATOM     12  H   UNL A   1       5.633  -0.047   0.504  1.00  0.00    +0.000 HD
ENDBRANCH  10  11
ENDBRANCH   7  10
ENDBRANCH   1   7
TORSDOF 7
ENDMDL
MODEL 5
REMARK VINA RESULT:    -4.781      1.316      2.065
REMARK INTER + INTRA:          -6.214
REMARK INTER:                  -5.762
REMARK INTRA:                  -0.452
REMARK UNBOUND:                -0.035
REMARK  Name = 3VB
REMARK  7 active torsions:
REMARK  status: ('A' for Active; 'I' for Inactive)
REMARK    1  A    between atoms: O_1  and  C_2
REMARK    2  A    between atoms: C_2  and  C_3
REMARK    3  A    between atoms: C_3  and  O_4
REMARK    4  A    between atoms: C_3  and  C_5
REMARK    5  A    between atoms: C_5  and  O_6
REMARK    6  A    between atoms: C_5  and  C_7
REMARK    7  A    between atoms: C_7  and  O_8
REMARK                            x       y       z     vdW  Elec       q    Type
REMARK                         _______ _______ _______ _____ _____    ______ ____
ROOT
ATOM      1  C   UNL A   1       4.450  -2.425   1.019  1.00  0.00    +0.000 C 
ENDROOT
BRANCH   1   2
ATOM      2  O   UNL A   1       4.692  -1.204   1.720  1.00  0.00    +0.000 OA
ATOM      3  H   UNL A   1       4.233  -1.140   2.568  1.00  0.00    +0.000 HD
ENDBRANCH   1   2
BRANCH   1   4
ATOM      4  C   UNL A   1       4.582  -2.185  -0.486  1.00  0.00    +0.000 C 
BRANCH   4   5
ATOM      5  O   UNL A   1       4.893  -3.416  -1.140  1.00  0.00    +0.000 OA
ATOM      6  H   UNL A   1       5.607  -3.916  -0.722  1.00  0.00    +0.000 HD
ENDBRANCH   4   5
ENDBRANCH   1   4
BRANCH   1   7
ATOM      7  C   UNL A   1       3.037  -2.923   1.334  1.00  0.00    +0.000 C 
BRANCH   7   8
ATOM      8  O   UNL A   1       2.665  -3.928   0.389  1.00  0.00    +0.000 OA
ATOM      9  H   UNL A   1       2.952  -3.743  -0.516  1.00  0.00    +0.000 HD
ENDBRANCH   7   8
BRANCH   7  10
ATOM     10  C   UNL A   1       2.054  -1.754   1.249  1.00  0.00    +0.000 C 
BRANCH  10  11
ATOM     11  O   UNL A   1       1.909  -1.159   2.540  1.00  0.00    +0.000 OA
ATOM     12  H   UNL A   1       1.765  -0.203   2.520  1.00  0.00    +0.000 HD
ENDBRANCH  10  11
ENDBRANCH   7  10
ENDBRANCH   1   7
TORSDOF 7
ENDMDL
MODEL 6
REMARK VINA RESULT:    -4.775      1.476      3.348
REMARK INTER + INTRA:          -6.206
REMARK INTER:                  -6.131
REMARK INTRA:                  -0.075
REMARK UNBOUND:                -0.035
REMARK  Name = 3VB
REMARK  7 active torsions:
REMARK  status: ('A' for Active; 'I' for Inactive)
REMARK    1  A    between atoms: O_1  and  C_2
REMARK    2  A    between atoms: C_2  and  C_3
REMARK    3  A    between atoms: C_3  and  O_4
REMARK    4  A    between atoms: C_3  and  C_5
REMARK    5  A    between atoms: C_5  and  O_6
REMARK    6  A    between atoms: C_5  and  C_7
REMARK    7  A    between atoms: C_7  and  O_8
REMARK                            x       y       z     vdW  Elec       q    Type
REMARK                         _______ _______ _______ _____ _____    ______ ____
ROOT
ATOM      1  C   UNL A   1       4.534  -1.642   0.822  1.00  0.00    +0.000 C 
ENDROOT
BRANCH   1   2
ATOM      2  O   UNL A   1       5.957  -1.733   0.740  1.00  0.00    +0.000 OA
ATOM      3  H   UNL A   1       6.392  -0.901   0.507  1.00  0.00    +0.000 HD
ENDBRANCH   1   2
BRANCH   1   4
ATOM      4  C   UNL A   1       4.108  -1.604   2.290  1.00  0.00    +0.000 C 
BRANCH   4   5
ATOM      5  O   UNL A   1       3.698  -0.280   2.635  1.00  0.00    +0.000 OA
ATOM      6  H   UNL A   1       2.778  -0.082   2.414  1.00  0.00    +0.000 HD
ENDBRANCH   4   5
ENDBRANCH   1   4
BRANCH   1   7
ATOM      7  C   UNL A   1       3.904  -2.858   0.139  1.00  0.00    +0.000 C 
BRANCH   7   8
ATOM      8  O   UNL A   1       3.466  -2.495  -1.172  1.00  0.00    +0.000 OA
ATOM      9  H   UNL A   1       2.535  -2.695  -1.344  1.00  0.00    +0.000 HD
ENDBRANCH   7   8
BRANCH   7  10
ATOM     10  C   UNL A   1       2.709  -3.344   0.961  1.00  0.00    +0.000 C 
BRANCH  10  11
ATOM     11  O   UNL A   1       1.497  -2.910   0.342  1.00  0.00    +0.000 OA
ATOM     12  H   UNL A   1       1.184  -3.493  -0.363  1.00  0.00    +0.000 HD
ENDBRANCH  10  11
ENDBRANCH   7  10
ENDBRANCH   1   7
TORSDOF 7
ENDMDL
MODEL 7
REMARK VINA RESULT:    -4.565      1.578      3.180
REMARK INTER + INTRA:          -5.935
REMARK INTER:                  -5.513
REMARK INTRA:                  -0.421
REMARK UNBOUND:                -0.035
REMARK  Name = 3VB
REMARK  7 active torsions:
REMARK  status: ('A' for Active; 'I' for Inactive)
REMARK    1  A    between atoms: O_1  and  C_2
REMARK    2  A    between atoms: C_2  and  C_3
REMARK    3  A    between atoms: C_3  and  O_4
REMARK    4  A    between atoms: C_3  and  C_5
REMARK    5  A    between atoms: C_5  and  O_6
REMARK    6  A    between atoms: C_5  and  C_7
REMARK    7  A    between atoms: C_7  and  O_8
REMARK                            x       y       z     vdW  Elec       q    Type
REMARK                         _______ _______ _______ _____ _____    ______ ____
ROOT
ATOM      1  C   UNL A   1       3.383  -2.853   1.300  1.00  0.00    +0.000 C 
ENDROOT
BRANCH   1   2
ATOM      2  O   UNL A   1       3.007  -3.370   0.021  1.00  0.00    +0.000 OA
ATOM      3  H   UNL A   1       3.352  -2.861  -0.725  1.00  0.00    +0.000 HD
ENDBRANCH   1   2
BRANCH   1   4
ATOM      4  C   UNL A   1       2.173  -2.187   1.957  1.00  0.00    +0.000 C 
BRANCH   4   5
ATOM      5  O   UNL A   1       2.201  -2.430   3.365  1.00  0.00    +0.000 OA
ATOM      6  H   UNL A   1       1.928  -3.322   3.616  1.00  0.00    +0.000 HD
ENDBRANCH   4   5
ENDBRANCH   1   4
BRANCH   1   7
ATOM      7  C   UNL A   1       4.501  -1.823   1.125  1.00  0.00    +0.000 C 
BRANCH   7   8
ATOM      8  O   UNL A   1       4.089  -0.574   1.683  1.00  0.00    +0.000 OA
ATOM      9  H   UNL A   1       3.244  -0.612   2.151  1.00  0.00    +0.000 HD
ENDBRANCH   7   8
BRANCH   7  10
ATOM     10  C   UNL A   1       4.801  -1.643  -0.365  1.00  0.00    +0.000 C 
BRANCH  10  11
ATOM     11  O   UNL A   1       3.725  -0.936  -0.985  1.00  0.00    +0.000 OA
ATOM     12  H   UNL A   1       3.998  -0.368  -1.718  1.00  0.00    +0.000 HD
ENDBRANCH  10  11
ENDBRANCH   7  10
ENDBRANCH   1   7
TORSDOF 7
ENDMDL
MODEL 8
REMARK VINA RESULT:    -4.488      1.598      2.424
REMARK INTER + INTRA:          -5.835
REMARK INTER:                  -5.797
REMARK INTRA:                  -0.039
REMARK UNBOUND:                -0.035
REMARK  Name = 3VB
REMARK  7 active torsions:
REMARK  status: ('A' for Active; 'I' for Inactive)
REMARK    1  A    between atoms: O_1  and  C_2
REMARK    2  A    between atoms: C_2  and  C_3
REMARK    3  A    between atoms: C_3  and  O_4
REMARK    4  A    between atoms: C_3  and  C_5
REMARK    5  A    between atoms: C_5  and  O_6
REMARK    6  A    between atoms: C_5  and  C_7
REMARK    7  A    between atoms: C_7  and  O_8
REMARK                            x       y       z     vdW  Elec       q    Type
REMARK                         _______ _______ _______ _____ _____    ______ ____
ROOT
ATOM      1  C   UNL A   1       4.438  -1.952   0.848  1.00  0.00    +0.000 C 
ENDROOT
BRANCH   1   2
ATOM      2  O   UNL A   1       5.834  -1.721   1.046  1.00  0.00    +0.000 OA
ATOM      3  H   UNL A   1       6.055  -0.803   1.254  1.00  0.00    +0.000 HD
ENDBRANCH   1   2
BRANCH   1   4
ATOM      4  C   UNL A   1       4.031  -1.461  -0.543  1.00  0.00    +0.000 C 
BRANCH   4   5
ATOM      5  O   UNL A   1       3.184  -2.432  -1.161  1.00  0.00    +0.000 OA
ATOM      6  H   UNL A   1       2.242  -2.220  -1.115  1.00  0.00    +0.000 HD
ENDBRANCH   4   5
ENDBRANCH   1   4
BRANCH   1   7
ATOM      7  C   UNL A   1       3.640  -1.192   1.911  1.00  0.00    +0.000 C 
BRANCH   7   8
ATOM      8  O   UNL A   1       4.405  -1.113   3.115  1.00  0.00    +0.000 OA
ATOM      9  H   UNL A   1       5.347  -0.950   2.972  1.00  0.00    +0.000 HD
ENDBRANCH   7   8
BRANCH   7  10
ATOM     10  C   UNL A   1       2.328  -1.929   2.187  1.00  0.00    +0.000 C 
BRANCH  10  11
ATOM     11  O   UNL A   1       2.479  -2.754   3.344  1.00  0.00    +0.000 OA
ATOM     12  H   UNL A   1       1.646  -2.970   3.785  1.00  0.00    +0.000 HD
ENDBRANCH  10  11
ENDBRANCH   7  10
ENDBRANCH   1   7
TORSDOF 7
ENDMDL
MODEL 9
REMARK VINA RESULT:    -4.486      1.511      3.809
REMARK INTER + INTRA:          -5.833
REMARK INTER:                  -5.777
REMARK INTRA:                  -0.056
REMARK UNBOUND:                -0.035
REMARK  Name = 3VB
REMARK  7 active torsions:
REMARK  status: ('A' for Active; 'I' for Inactive)
REMARK    1  A    between atoms: O_1  and  C_2
REMARK    2  A    between atoms: C_2  and  C_3
REMARK    3  A    between atoms: C_3  and  O_4
REMARK    4  A    between atoms: C_3  and  C_5
REMARK    5  A    between atoms: C_5  and  O_6
REMARK    6  A    between atoms: C_5  and  C_7
REMARK    7  A    between atoms: C_7  and  O_8
REMARK                            x       y       z     vdW  Elec       q    Type
REMARK                         _______ _______ _______ _____ _____    ______ ____
ROOT
ATOM      1  C   UNL A   1       3.751  -1.310   1.921  1.00  0.00    +0.000 C 
ENDROOT
BRANCH   1   2
ATOM      2  O   UNL A   1       4.491  -0.940   3.086  1.00  0.00    +0.000 OA
ATOM      3  H   UNL A   1       4.110  -0.196   3.573  1.00  0.00    +0.000 HD
ENDBRANCH   1   2
BRANCH   1   4
ATOM      4  C   UNL A   1       2.657  -2.307   2.306  1.00  0.00    +0.000 C 
BRANCH   4   5
ATOM      5  O   UNL A   1       1.565  -1.608   2.906  1.00  0.00    +0.000 OA
ATOM      6  H   UNL A   1       1.315  -0.797   2.445  1.00  0.00    +0.000 HD
ENDBRANCH   4   5
ENDBRANCH   1   4
BRANCH   1   7
ATOM      7  C   UNL A   1       4.694  -1.954   0.901  1.00  0.00    +0.000 C 
BRANCH   7   8
ATOM      8  O   UNL A   1       5.226  -0.946   0.041  1.00  0.00    +0.000 OA
ATOM      9  H   UNL A   1       4.607  -0.231  -0.158  1.00  0.00    +0.000 HD
ENDBRANCH   7   8
BRANCH   7  10
ATOM     10  C   UNL A   1       3.920  -2.980   0.069  1.00  0.00    +0.000 C 
BRANCH  10  11
ATOM     11  O   UNL A   1       3.407  -2.350  -1.106  1.00  0.00    +0.000 OA
ATOM     12  H   UNL A   1       3.034  -2.965  -1.751  1.00  0.00    +0.000 HD
ENDBRANCH  10  11
ENDBRANCH   7  10
ENDBRANCH   1   7
TORSDOF 7
ENDMDL
