MODEL 1
REMARK VINA RESULT:    -6.152      0.000      0.000
REMARK INTER + INTRA:          -6.871
REMARK INTER:                  -6.871
REMARK INTRA:                   0.000
REMARK UNBOUND:                 0.000
REMARK  Name = ARA
REMARK  4 active torsions:
REMARK  status: ('A' for Active; 'I' for Inactive)
REMARK    1  A    between atoms: C_1  and  O_6
REMARK    2  A    between atoms: C_2  and  O_7
REMARK    3  A    between atoms: C_3  and  O_8
REMARK    4  A    between atoms: C_4  and  O_9
REMARK                            x       y       z     vdW  Elec       q    Type
REMARK                         _______ _______ _______ _____ _____    ______ ____
ROOT
ATOM      1  C   UNL     1       4.201  -2.930   0.003  1.00  0.00    +0.000 C 
ATOM      2  C   UNL     1       4.358  -1.533   0.604  1.00  0.00    +0.000 C 
ATOM      3  C   UNL     1       3.915  -1.567   2.072  1.00  0.00    +0.000 C 
ATOM      4  C   UNL     1       2.503  -2.154   2.143  1.00  0.00    +0.000 C 
ATOM      5  C   UNL     1       2.486  -3.505   1.425  1.00  0.00    +0.000 C 
ATOM      6  O   UNL     1       2.833  -3.329   0.054  1.00  0.00    +0.000 OA
ENDROOT
BRANCH   1   7
ATOM      7  O   UNL     1       4.641  -2.915  -1.357  1.00  0.00    +0.000 OA
ATOM      8  H   UNL     1       5.045  -2.050  -1.510  1.00  0.00    +0.000 HD
ENDBRANCH   1   7
BRANCH   2   9
ATOM      9  O   UNL     1       5.726  -1.129   0.524  1.00  0.00    +0.000 OA
ATOM     10  H   UNL     1       6.041  -1.025   1.431  1.00  0.00    +0.000 HD
ENDBRANCH   2   9
BRANCH   3  11
ATOM     11  O   UNL     1       3.917  -0.240   2.604  1.00  0.00    +0.000 OA
ATOM     12  H   UNL     1       3.805  -0.323   3.561  1.00  0.00    +0.000 HD
ENDBRANCH   3  11
BRANCH   4  13
ATOM     13  O   UNL     1       1.583  -1.264   1.508  1.00  0.00    +0.000 OA
ATOM     14  H   UNL     1       1.769  -0.379   1.850  1.00  0.00    +0.000 HD
ENDBRANCH   4  13
TORSDOF 4
ENDMDL
MODEL 2
REMARK VINA RESULT:    -6.006      1.329      3.409
REMARK INTER + INTRA:          -6.708
REMARK INTER:                  -6.708
REMARK INTRA:                   0.000
REMARK UNBOUND:                 0.000
REMARK  Name = ARA
REMARK  4 active torsions:
REMARK  status: ('A' for Active; 'I' for Inactive)
REMARK    1  A    between atoms: C_1  and  O_6
REMARK    2  A    between atoms: C_2  and  O_7
REMARK    3  A    between atoms: C_3  and  O_8
REMARK    4  A    between atoms: C_4  and  O_9
REMARK                            x       y       z     vdW  Elec       q    Type
REMARK                         _______ _______ _______ _____ _____    ______ ____
ROOT
ATOM      1  C   UNL     1       4.529  -1.831   2.208  1.00  0.00    +0.000 C 
ATOM      2  C   UNL     1       3.040  -1.863   1.863  1.00  0.00    +0.000 C 
ATOM      3  C   UNL     1       2.817  -2.826   0.690  1.00  0.00    +0.000 C 
ATOM      4  C   UNL     1       3.746  -2.418  -0.459  1.00  0.00    +0.000 C 
ATOM      5  C   UNL     1       5.182  -2.344   0.062  1.00  0.00    +0.000 C 
ATOM      6  O   UNL     1       5.275  -1.359   1.088  1.00  0.00    +0.000 OA
ENDROOT
BRANCH   1   7
ATOM      7  O   UNL     1       4.740  -0.960   3.321  1.00  0.00    +0.000 OA
ATOM      8  H   UNL     1       4.038  -0.296   3.294  1.00  0.00    +0.000 HD
ENDBRANCH   1   7
BRANCH   2   9
ATOM      9  O   UNL     1       2.295  -2.310   2.998  1.00  0.00    +0.000 OA
ATOM     10  H   UNL     1       1.443  -1.855   2.971  1.00  0.00    +0.000 HD
ENDBRANCH   2   9
BRANCH   3  11
ATOM     11  O   UNL     1       1.455  -2.754   0.262  1.00  0.00    +0.000 OA
ATOM     12  H   UNL     1       1.331  -3.456  -0.392  1.00  0.00    +0.000 HD
ENDBRANCH   3  11
BRANCH   4  13
ATOM     13  O   UNL     1       3.352  -1.139  -0.960  1.00  0.00    +0.000 OA
ATOM     14  H   UNL     1       2.447  -1.233  -1.286  1.00  0.00    +0.000 HD
ENDBRANCH   4  13
TORSDOF 4
ENDMDL
MODEL 3
REMARK VINA RESULT:    -5.902      1.045      3.667
REMARK INTER + INTRA:          -6.593
REMARK INTER:                  -6.593
REMARK INTRA:                   0.000
REMARK UNBOUND:                 0.000
REMARK  Name = ARA
REMARK  4 active torsions:
REMARK  status: ('A' for Active; 'I' for Inactive)
REMARK    1  A    between atoms: C_1  and  O_6
REMARK    2  A    between atoms: C_2  and  O_7
REMARK    3  A    between atoms: C_3  and  O_8
REMARK    4  A    between atoms: C_4  and  O_9
REMARK                            x       y       z     vdW  Elec       q    Type
REMARK                         _______ _______ _______ _____ _____    ______ ____
ROOT
ATOM      1  C   UNL     1       2.789  -1.675   2.222  1.00  0.00    +0.000 C 
ATOM      2  C   UNL     1       2.742  -1.898   0.710  1.00  0.00    +0.000 C 
ATOM      3  C   UNL     1       3.977  -2.702   0.284  1.00  0.00    +0.000 C 
ATOM      4  C   UNL     1       5.228  -1.986   0.801  1.00  0.00    +0.000 C 
ATOM      5  C   UNL     1       5.087  -1.756   2.307  1.00  0.00    +0.000 C 
ATOM      6  O   UNL     1       3.955  -0.930   2.566  1.00  0.00    +0.000 OA
ENDROOT
BRANCH   1   7
ATOM      7  O   UNL     1       1.626  -0.953   2.632  1.00  0.00    +0.000 OA
ATOM      8  H   UNL     1       1.671  -0.873   3.594  1.00  0.00    +0.000 HD
ENDBRANCH   1   7
BRANCH   2   9
ATOM      9  O   UNL     1       1.557  -2.621   0.370  1.00  0.00    +0.000 OA
ATOM     10  H   UNL     1       0.901  -1.968   0.094  1.00  0.00    +0.000 HD
ENDBRANCH   2   9
BRANCH   3  11
ATOM     11  O   UNL     1       4.023  -2.792  -1.142  1.00  0.00    +0.000 OA
ATOM     12  H   UNL     1       3.308  -2.235  -1.480  1.00  0.00    +0.000 HD
ENDBRANCH   3  11
BRANCH   4  13
ATOM     13  O   UNL     1       5.368  -0.729   0.136  1.00  0.00    +0.000 OA
ATOM     14  H   UNL     1       6.096  -0.263   0.569  1.00  0.00    +0.000 HD
ENDBRANCH   4  13
TORSDOF 4
ENDMDL
MODEL 4
REMARK VINA RESULT:    -5.891      1.232      2.161
REMARK INTER + INTRA:          -6.580
REMARK INTER:                  -6.580
REMARK INTRA:                   0.000
REMARK UNBOUND:                 0.000
REMARK  Name = ARA
REMARK  4 active torsions:
REMARK  status: ('A' for Active; 'I' for Inactive)
REMARK    1  A    between atoms: C_1  and  O_6
REMARK    2  A    between atoms: C_2  and  O_7
REMARK    3  A    between atoms: C_3  and  O_8
REMARK    4  A    between atoms: C_4  and  O_9
REMARK                            x       y       z     vdW  Elec       q    Type
REMARK                         _______ _______ _______ _____ _____    ______ ____
ROOT
ATOM      1  C   UNL     1       2.656  -1.754  -0.115  1.00  0.00    +0.000 C 
ATOM      2  C   UNL     1       4.141  -1.411   0.003  1.00  0.00    +0.000 C 
ATOM      3  C   UNL     1       4.731  -2.146   1.213  1.00  0.00    +0.000 C 
ATOM      4  C   UNL     1       3.884  -1.814   2.446  1.00  0.00    +0.000 C 
ATOM      5  C   UNL     1       2.417  -2.128   2.143  1.00  0.00    +0.000 C 
ATOM      6  O   UNL     1       1.966  -1.325   1.056  1.00  0.00    +0.000 OA
ENDROOT
BRANCH   1   7
ATOM      7  O   UNL     1       2.106  -1.098  -1.259  1.00  0.00    +0.000 OA
ATOM      8  H   UNL     1       2.800  -1.080  -1.931  1.00  0.00    +0.000 HD
ENDBRANCH   1   7
BRANCH   2   9
ATOM      9  O   UNL     1       4.823  -1.819  -1.185  1.00  0.00    +0.000 OA
ATOM     10  H   UNL     1       4.204  -2.364  -1.689  1.00  0.00    +0.000 HD
ENDBRANCH   2   9
BRANCH   3  11
ATOM     11  O   UNL     1       6.080  -1.720   1.423  1.00  0.00    +0.000 OA
ATOM     12  H   UNL     1       6.536  -1.812   0.576  1.00  0.00    +0.000 HD
ENDBRANCH   3  11
BRANCH   4  13
ATOM     13  O   UNL     1       4.021  -0.428   2.762  1.00  0.00    +0.000 OA
ATOM     14  H   UNL     1       4.361  -0.380   3.666  1.00  0.00    +0.000 HD
ENDBRANCH   4  13
TORSDOF 4
ENDMDL
MODEL 5
REMARK VINA RESULT:    -5.792      1.106      2.890
REMARK INTER + INTRA:          -6.469
REMARK INTER:                  -6.469
REMARK INTRA:                   0.000
REMARK UNBOUND:                 0.000
REMARK  Name = ARA
REMARK  4 active torsions:
REMARK  status: ('A' for Active; 'I' for Inactive)
REMARK    1  A    between atoms: C_1  and  O_6
REMARK    2  A    between atoms: C_2  and  O_7
REMARK    3  A    between atoms: C_3  and  O_8
REMARK    4  A    between atoms: C_4  and  O_9
REMARK                            x       y       z     vdW  Elec       q    Type
REMARK                         _______ _______ _______ _____ _____    ______ ____
ROOT
ATOM      1  C   UNL     1       4.014  -1.341   2.275  1.00  0.00    +0.000 C 
ATOM      2  C   UNL     1       4.671  -2.059   1.095  1.00  0.00    +0.000 C 
ATOM      3  C   UNL     1       3.739  -1.983  -0.120  1.00  0.00    +0.000 C 
ATOM      4  C   UNL     1       2.362  -2.518   0.287  1.00  0.00    +0.000 C 
ATOM      5  C   UNL     1       1.879  -1.765   1.528  1.00  0.00    +0.000 C 
ATOM      6  O   UNL     1       2.785  -1.981   2.607  1.00  0.00    +0.000 OA
ENDROOT
BRANCH   1   7
ATOM      7  O   UNL     1       4.891  -1.380   3.403  1.00  0.00    +0.000 OA
ATOM      8  H   UNL     1       4.395  -1.783   4.128  1.00  0.00    +0.000 HD
ENDBRANCH   1   7
BRANCH   2   9
ATOM      9  O   UNL     1       5.916  -1.429   0.785  1.00  0.00    +0.000 OA
ATOM     10  H   UNL     1       6.154  -0.888   1.550  1.00  0.00    +0.000 HD
ENDBRANCH   2   9
BRANCH   3  11
ATOM     11  O   UNL     1       4.272  -2.774  -1.185  1.00  0.00    +0.000 OA
ATOM     12  H   UNL     1       5.209  -2.546  -1.259  1.00  0.00    +0.000 HD
ENDBRANCH   3  11
BRANCH   4  13
ATOM     13  O   UNL     1       2.460  -3.912   0.581  1.00  0.00    +0.000 OA
ATOM     14  H   UNL     1       2.907  -4.326  -0.169  1.00  0.00    +0.000 HD
ENDBRANCH   4  13
TORSDOF 4
ENDMDL
MODEL 6
REMARK VINA RESULT:    -5.768      1.226      3.063
REMARK INTER + INTRA:          -6.442
REMARK INTER:                  -6.442
REMARK INTRA:                   0.000
REMARK UNBOUND:                 0.000
REMARK  Name = ARA
REMARK  4 active torsions:
REMARK  status: ('A' for Active; 'I' for Inactive)
REMARK    1  A    between atoms: C_1  and  O_6
REMARK    2  A    between atoms: C_2  and  O_7
REMARK    3  A    between atoms: C_3  and  O_8
REMARK    4  A    between atoms: C_4  and  O_9
REMARK                            x       y       z     vdW  Elec       q    Type
REMARK                         _______ _______ _______ _____ _____    ______ ____
ROOT
ATOM      1  C   UNL     1       2.437  -1.603   2.017  1.00  0.00    +0.000 C 
ATOM      2  C   UNL     1       3.940  -1.870   2.117  1.00  0.00    +0.000 C 
ATOM      3  C   UNL     1       4.619  -1.404   0.824  1.00  0.00    +0.000 C 
ATOM      4  C   UNL     1       3.916  -2.068  -0.364  1.00  0.00    +0.000 C 
ATOM      5  C   UNL     1       2.414  -1.786  -0.277  1.00  0.00    +0.000 C 
ATOM      6  O   UNL     1       1.887  -2.339   0.927  1.00  0.00    +0.000 OA
ENDROOT
BRANCH   1   7
ATOM      7  O   UNL     1       1.801  -2.006   3.231  1.00  0.00    +0.000 OA
ATOM      8  H   UNL     1       1.629  -1.200   3.738  1.00  0.00    +0.000 HD
ENDBRANCH   1   7
BRANCH   2   9
ATOM      9  O   UNL     1       4.480  -1.152   3.229  1.00  0.00    +0.000 OA
ATOM     10  H   UNL     1       3.731  -0.769   3.705  1.00  0.00    +0.000 HD
ENDBRANCH   2   9
BRANCH   3  11
ATOM     11  O   UNL     1       5.998  -1.781   0.843  1.00  0.00    +0.000 OA
ATOM     12  H   UNL     1       6.106  -2.407   1.572  1.00  0.00    +0.000 HD
ENDBRANCH   3  11
BRANCH   4  13
ATOM     13  O   UNL     1       4.140  -3.478  -0.325  1.00  0.00    +0.000 OA
ATOM     14  H   UNL     1       3.654  -3.818   0.439  1.00  0.00    +0.000 HD
ENDBRANCH   4  13
TORSDOF 4
ENDMDL
MODEL 7
REMARK VINA RESULT:    -5.507      1.060      1.962
REMARK INTER + INTRA:          -6.151
REMARK INTER:                  -6.151
REMARK INTRA:                   0.000
REMARK UNBOUND:                 0.000
REMARK  Name = ARA
REMARK  4 active torsions:
REMARK  status: ('A' for Active; 'I' for Inactive)
REMARK    1  A    between atoms: C_1  and  O_6
REMARK    2  A    between atoms: C_2  and  O_7
REMARK    3  A    between atoms: C_3  and  O_8
REMARK    4  A    between atoms: C_4  and  O_9
REMARK                            x       y       z     vdW  Elec       q    Type
REMARK                         _______ _______ _______ _____ _____    ______ ____
ROOT
ATOM      1  C   UNL     1       4.862  -2.252   1.235  1.00  0.00    +0.000 C 
ATOM      2  C   UNL     1       3.876  -1.254   1.844  1.00  0.00    +0.000 C 
ATOM      3  C   UNL     1       2.568  -1.981   2.178  1.00  0.00    +0.000 C 
ATOM      4  C   UNL     1       2.075  -2.702   0.920  1.00  0.00    +0.000 C 
ATOM      5  C   UNL     1       3.197  -3.591   0.380  1.00  0.00    +0.000 C 
ATOM      6  O   UNL     1       4.323  -2.790   0.030  1.00  0.00    +0.000 OA
ENDROOT
BRANCH   1   7
ATOM      7  O   UNL     1       6.095  -1.588   0.949  1.00  0.00    +0.000 OA
ATOM      8  H   UNL     1       6.803  -2.171   1.255  1.00  0.00    +0.000 HD
ENDBRANCH   1   7
BRANCH   2   9
ATOM      9  O   UNL     1       4.435  -0.697   3.036  1.00  0.00    +0.000 OA
ATOM     10  H   UNL     1       5.387  -0.626   2.892  1.00  0.00    +0.000 HD
ENDBRANCH   2   9
BRANCH   3  11
ATOM     11  O   UNL     1       1.589  -1.034   2.611  1.00  0.00    +0.000 OA
ATOM     12  H   UNL     1       0.816  -1.541   2.894  1.00  0.00    +0.000 HD
ENDBRANCH   3  11
BRANCH   4  13
ATOM     13  O   UNL     1       1.711  -1.739  -0.070  1.00  0.00    +0.000 OA
ATOM     14  H   UNL     1       0.885  -1.332   0.226  1.00  0.00    +0.000 HD
ENDBRANCH   4  13
TORSDOF 4
ENDMDL
MODEL 8
REMARK VINA RESULT:    -5.303      1.320      2.971
REMARK INTER + INTRA:          -5.923
REMARK INTER:                  -5.923
REMARK INTRA:                   0.000
REMARK UNBOUND:                 0.000
REMARK  Name = ARA
REMARK  4 active torsions:
REMARK  status: ('A' for Active; 'I' for Inactive)
REMARK    1  A    between atoms: C_1  and  O_6
REMARK    2  A    between atoms: C_2  and  O_7
REMARK    3  A    between atoms: C_3  and  O_8
REMARK    4  A    between atoms: C_4  and  O_9
REMARK                            x       y       z     vdW  Elec       q    Type
REMARK                         _______ _______ _______ _____ _____    ______ ____
ROOT
ATOM      1  C   UNL     1       1.983  -1.996   0.415  1.00  0.00    +0.000 C 
ATOM      2  C   UNL     1       2.689  -2.031   1.771  1.00  0.00    +0.000 C 
ATOM      3  C   UNL     1       3.768  -0.941   1.803  1.00  0.00    +0.000 C 
ATOM      4  C   UNL     1       4.680  -1.122   0.586  1.00  0.00    +0.000 C 
ATOM      5  C   UNL     1       3.823  -1.154  -0.681  1.00  0.00    +0.000 C 
ATOM      6  O   UNL     1       2.922  -2.257  -0.626  1.00  0.00    +0.000 OA
ENDROOT
BRANCH   1   7
ATOM      7  O   UNL     1       0.955  -2.988   0.388  1.00  0.00    +0.000 OA
ATOM      8  H   UNL     1       0.953  -3.411   1.257  1.00  0.00    +0.000 HD
ENDBRANCH   1   7
BRANCH   2   9
ATOM      9  O   UNL     1       1.738  -1.797   2.812  1.00  0.00    +0.000 OA
ATOM     10  H   UNL     1       1.998  -0.975   3.248  1.00  0.00    +0.000 HD
ENDBRANCH   2   9
BRANCH   3  11
ATOM     11  O   UNL     1       4.532  -1.058   3.005  1.00  0.00    +0.000 OA
ATOM     12  H   UNL     1       4.457  -0.213   3.468  1.00  0.00    +0.000 HD
ENDBRANCH   3  11
BRANCH   4  13
ATOM     13  O   UNL     1       5.402  -2.348   0.708  1.00  0.00    +0.000 OA
ATOM     14  H   UNL     1       5.996  -2.250   1.464  1.00  0.00    +0.000 HD
ENDBRANCH   4  13
TORSDOF 4
ENDMDL
MODEL 9
REMARK VINA RESULT:    -5.014      1.364      2.618
REMARK INTER + INTRA:          -5.600
REMARK INTER:                  -5.600
REMARK INTRA:                   0.000
REMARK UNBOUND:                 0.000
REMARK  Name = ARA
REMARK  4 active torsions:
REMARK  status: ('A' for Active; 'I' for Inactive)
REMARK    1  A    between atoms: C_1  and  O_6
REMARK    2  A    between atoms: C_2  and  O_7
REMARK    3  A    between atoms: C_3  and  O_8
REMARK    4  A    between atoms: C_4  and  O_9
REMARK                            x       y       z     vdW  Elec       q    Type
REMARK                         _______ _______ _______ _____ _____    ______ ____
ROOT
ATOM      1  C   UNL     1       4.685  -1.642   0.508  1.00  0.00    +0.000 C 
ATOM      2  C   UNL     1       3.515  -2.539   0.102  1.00  0.00    +0.000 C 
ATOM      3  C   UNL     1       2.211  -1.938   0.641  1.00  0.00    +0.000 C 
ATOM      4  C   UNL     1       2.366  -1.709   2.148  1.00  0.00    +0.000 C 
ATOM      5  C   UNL     1       3.623  -0.874   2.400  1.00  0.00    +0.000 C 
ATOM      6  O   UNL     1       4.771  -1.575   1.930  1.00  0.00    +0.000 OA
ENDROOT
BRANCH   1   7
ATOM      7  O   UNL     1       5.900  -2.179  -0.018  1.00  0.00    +0.000 OA
ATOM      8  H   UNL     1       6.610  -1.896   0.574  1.00  0.00    +0.000 HD
ENDBRANCH   1   7
BRANCH   2   9
ATOM      9  O   UNL     1       3.451  -2.624  -1.324  1.00  0.00    +0.000 OA
ATOM     10  H   UNL     1       3.519  -3.560  -1.552  1.00  0.00    +0.000 HD
ENDBRANCH   2   9
BRANCH   3  11
ATOM     11  O   UNL     1       1.129  -2.840   0.396  1.00  0.00    +0.000 OA
ATOM     12  H   UNL     1       0.481  -2.359  -0.137  1.00  0.00    +0.000 HD
ENDBRANCH   3  11
BRANCH   4  13
ATOM     13  O   UNL     1       2.487  -2.968   2.812  1.00  0.00    +0.000 OA
ATOM     14  H   UNL     1       2.458  -2.787   3.761  1.00  0.00    +0.000 HD
ENDBRANCH   4  13
TORSDOF 4
ENDMDL
