MODEL 1
REMARK VINA RESULT:    -5.743      0.000      0.000
REMARK INTER + INTRA:          -6.414
REMARK INTER:                  -6.414
REMARK INTRA:                   0.000
REMARK UNBOUND:                 0.000
REMARK  Name = PAV
REMARK  5 active torsions:
REMARK  status: ('A' for Active; 'I' for Inactive)
REMARK    1  A    between atoms: O_1  and  C_2
REMARK    2  A    between atoms: C_2  and  C_3
REMARK    3  A    between atoms: C_6  and  O_7
REMARK    4  A    between atoms: C_8  and  O_9
REMARK    5  A    between atoms: C_8  and  O_10
REMARK                            x       y       z     vdW  Elec       q    Type
REMARK                         _______ _______ _______ _____ _____    ______ ____
ROOT
ATOM      1  C   UNL     1       3.161  -1.980   2.113  1.00  0.00    +0.000 C 
ATOM      2  C   UNL     1       2.352  -2.989   2.930  1.00  0.00    +0.000 C 
ATOM      3  O   UNL     1       4.559  -2.114   2.417  1.00  0.00    +0.000 OA
ATOM      4  C   UNL     1       5.284  -1.830   1.202  1.00  0.00    +0.000 C 
ATOM      5  C   UNL     1       4.431  -2.517   0.105  1.00  0.00    +0.000 C 
ATOM      6  C   UNL     1       2.987  -2.262   0.609  1.00  0.00    +0.000 C 
ENDROOT
BRANCH   1   7
ATOM      7  O   UNL     1       2.724  -0.652   2.412  1.00  0.00    +0.000 OA
ATOM      8  H   UNL     1       2.172  -0.366   1.671  1.00  0.00    +0.000 HD
ENDBRANCH   1   7
BRANCH   5   9
ATOM      9  O   UNL     1       4.642  -1.899  -1.167  1.00  0.00    +0.000 OA
ATOM     10  H   UNL     1       5.473  -1.410  -1.106  1.00  0.00    +0.000 HD
ENDBRANCH   5   9
BRANCH   6  11
ATOM     11  O   UNL     1       2.176  -3.422   0.410  1.00  0.00    +0.000 OA
ATOM     12  H   UNL     1       1.309  -3.226   0.792  1.00  0.00    +0.000 HD
ENDBRANCH   6  11
BRANCH   6  13
ATOM     13  O   UNL     1       2.417  -1.132  -0.053  1.00  0.00    +0.000 OA
ATOM     14  H   UNL     1       3.117  -0.745  -0.597  1.00  0.00    +0.000 HD
ENDBRANCH   6  13
TORSDOF 4
ENDMDL
MODEL 2
REMARK VINA RESULT:    -5.366      1.138      3.320
REMARK INTER + INTRA:          -5.994
REMARK INTER:                  -5.994
REMARK INTRA:                   0.000
REMARK UNBOUND:                 0.000
REMARK  Name = PAV
REMARK  5 active torsions:
REMARK  status: ('A' for Active; 'I' for Inactive)
REMARK    1  A    between atoms: O_1  and  C_2
REMARK    2  A    between atoms: C_2  and  C_3
REMARK    3  A    between atoms: C_6  and  O_7
REMARK    4  A    between atoms: C_8  and  O_9
REMARK    5  A    between atoms: C_8  and  O_10
REMARK                            x       y       z     vdW  Elec       q    Type
REMARK                         _______ _______ _______ _____ _____    ______ ____
ROOT
ATOM      1  C   UNL     1       3.775  -1.903   0.276  1.00  0.00    +0.000 C 
ATOM      2  C   UNL     1       5.198  -1.981  -0.278  1.00  0.00    +0.000 C 
ATOM      3  O   UNL     1       3.069  -3.120  -0.016  1.00  0.00    +0.000 OA
ATOM      4  C   UNL     1       2.176  -3.366   1.090  1.00  0.00    +0.000 C 
ATOM      5  C   UNL     1       3.022  -2.976   2.329  1.00  0.00    +0.000 C 
ATOM      6  C   UNL     1       3.815  -1.750   1.808  1.00  0.00    +0.000 C 
ENDROOT
BRANCH   1   7
ATOM      7  O   UNL     1       3.088  -0.792  -0.305  1.00  0.00    +0.000 OA
ATOM      8  H   UNL     1       3.395  -0.721  -1.219  1.00  0.00    +0.000 HD
ENDBRANCH   1   7
BRANCH   5   9
ATOM      9  O   UNL     1       2.181  -2.609   3.426  1.00  0.00    +0.000 OA
ATOM     10  H   UNL     1       1.795  -1.751   3.208  1.00  0.00    +0.000 HD
ENDBRANCH   5   9
BRANCH   6  11
ATOM     11  O   UNL     1       5.164  -1.791   2.277  1.00  0.00    +0.000 OA
ATOM     12  H   UNL     1       5.123  -1.849   3.242  1.00  0.00    +0.000 HD
ENDBRANCH   6  11
BRANCH   6  13
ATOM     13  O   UNL     1       3.182  -0.535   2.211  1.00  0.00    +0.000 OA
ATOM     14  H   UNL     1       2.755  -0.168   1.424  1.00  0.00    +0.000 HD
ENDBRANCH   6  13
TORSDOF 4
ENDMDL
MODEL 3
REMARK VINA RESULT:    -5.296      1.283      1.781
REMARK INTER + INTRA:          -5.915
REMARK INTER:                  -5.915
REMARK INTRA:                   0.000
REMARK UNBOUND:                 0.000
REMARK  Name = PAV
REMARK  5 active torsions:
REMARK  status: ('A' for Active; 'I' for Inactive)
REMARK    1  A    between atoms: O_1  and  C_2
REMARK    2  A    between atoms: C_2  and  C_3
REMARK    3  A    between atoms: C_6  and  O_7
REMARK    4  A    between atoms: C_8  and  O_9
REMARK    5  A    between atoms: C_8  and  O_10
REMARK                            x       y       z     vdW  Elec       q    Type
REMARK                         _______ _______ _______ _____ _____    ______ ____
ROOT
ATOM      1  C   UNL     1       2.978  -2.441   0.934  1.00  0.00    +0.000 C 
ATOM      2  C   UNL     1       2.425  -3.866   0.880  1.00  0.00    +0.000 C 
ATOM      3  O   UNL     1       3.497  -2.169   2.246  1.00  0.00    +0.000 OA
ATOM      4  C   UNL     1       4.632  -1.293   2.077  1.00  0.00    +0.000 C 
ATOM      5  C   UNL     1       5.341  -1.861   0.821  1.00  0.00    +0.000 C 
ATOM      6  C   UNL     1       4.141  -2.290  -0.063  1.00  0.00    +0.000 C 
ENDROOT
BRANCH   1   7
ATOM      7  O   UNL     1       1.943  -1.507   0.618  1.00  0.00    +0.000 OA
ATOM      8  H   UNL     1       1.987  -1.353  -0.335  1.00  0.00    +0.000 HD
ENDBRANCH   1   7
BRANCH   5   9
ATOM      9  O   UNL     1       6.115  -0.849   0.172  1.00  0.00    +0.000 OA
ATOM     10  H   UNL     1       6.956  -1.255  -0.073  1.00  0.00    +0.000 HD
ENDBRANCH   5   9
BRANCH   6  11
ATOM     11  O   UNL     1       4.414  -3.538  -0.703  1.00  0.00    +0.000 OA
ATOM     12  H   UNL     1       4.473  -3.358  -1.652  1.00  0.00    +0.000 HD
ENDBRANCH   6  11
BRANCH   6  13
ATOM     13  O   UNL     1       3.847  -1.283  -1.032  1.00  0.00    +0.000 OA
ATOM     14  H   UNL     1       3.597  -0.487  -0.541  1.00  0.00    +0.000 HD
ENDBRANCH   6  13
TORSDOF 4
ENDMDL
MODEL 4
REMARK VINA RESULT:    -5.219      1.367      3.053
REMARK INTER + INTRA:          -5.829
REMARK INTER:                  -5.829
REMARK INTRA:                   0.000
REMARK UNBOUND:                 0.000
REMARK  Name = PAV
REMARK  5 active torsions:
REMARK  status: ('A' for Active; 'I' for Inactive)
REMARK    1  A    between atoms: O_1  and  C_2
REMARK    2  A    between atoms: C_2  and  C_3
REMARK    3  A    between atoms: C_6  and  O_7
REMARK    4  A    between atoms: C_8  and  O_9
REMARK    5  A    between atoms: C_8  and  O_10
REMARK                            x       y       z     vdW  Elec       q    Type
REMARK                         _______ _______ _______ _____ _____    ______ ____
ROOT
ATOM      1  C   UNL     1       3.937  -2.601   0.194  1.00  0.00    +0.000 C 
ATOM      2  C   UNL     1       4.641  -2.001  -1.024  1.00  0.00    +0.000 C 
ATOM      3  O   UNL     1       4.721  -2.367   1.376  1.00  0.00    +0.000 OA
ATOM      4  C   UNL     1       3.796  -2.176   2.466  1.00  0.00    +0.000 C 
ATOM      5  C   UNL     1       2.666  -1.324   1.834  1.00  0.00    +0.000 C 
ATOM      6  C   UNL     1       2.574  -1.916   0.403  1.00  0.00    +0.000 C 
ENDROOT
BRANCH   1   7
ATOM      7  O   UNL     1       3.751  -4.005   0.004  1.00  0.00    +0.000 OA
ATOM      8  H   UNL     1       4.627  -4.385  -0.149  1.00  0.00    +0.000 HD
ENDBRANCH   1   7
BRANCH   5   9
ATOM      9  O   UNL     1       1.436  -1.504   2.539  1.00  0.00    +0.000 OA
ATOM     10  H   UNL     1       0.768  -0.983   2.076  1.00  0.00    +0.000 HD
ENDBRANCH   5   9
BRANCH   6  11
ATOM     11  O   UNL     1       2.387  -0.875  -0.557  1.00  0.00    +0.000 OA
ATOM     12  H   UNL     1       1.440  -0.841  -0.752  1.00  0.00    +0.000 HD
ENDBRANCH   6  11
BRANCH   6  13
ATOM     13  O   UNL     1       1.513  -2.869   0.323  1.00  0.00    +0.000 OA
ATOM     14  H   UNL     1       1.908  -3.740   0.466  1.00  0.00    +0.000 HD
ENDBRANCH   6  13
TORSDOF 4
ENDMDL
MODEL 5
REMARK VINA RESULT:    -5.000      1.418      2.267
REMARK INTER + INTRA:          -5.585
REMARK INTER:                  -5.585
REMARK INTRA:                   0.000
REMARK UNBOUND:                 0.000
REMARK  Name = PAV
REMARK  5 active torsions:
REMARK  status: ('A' for Active; 'I' for Inactive)
REMARK    1  A    between atoms: O_1  and  C_2
REMARK    2  A    between atoms: C_2  and  C_3
REMARK    3  A    between atoms: C_6  and  O_7
REMARK    4  A    between atoms: C_8  and  O_9
REMARK    5  A    between atoms: C_8  and  O_10
REMARK                            x       y       z     vdW  Elec       q    Type
REMARK                         _______ _______ _______ _____ _____    ______ ____
ROOT
ATOM      1  C   UNL     1       4.173  -1.504   2.399  1.00  0.00    +0.000 C 
ATOM      2  C   UNL     1       4.823  -1.716   3.767  1.00  0.00    +0.000 C 
ATOM      3  O   UNL     1       4.982  -2.107   1.375  1.00  0.00    +0.000 OA
ATOM      4  C   UNL     1       4.081  -2.603   0.363  1.00  0.00    +0.000 C 
ATOM      5  C   UNL     1       2.907  -3.195   1.185  1.00  0.00    +0.000 C 
ATOM      6  C   UNL     1       2.795  -2.190   2.360  1.00  0.00    +0.000 C 
ENDROOT
BRANCH   1   7
ATOM      7  O   UNL     1       4.027  -0.106   2.142  1.00  0.00    +0.000 OA
ATOM      8  H   UNL     1       3.316   0.211   2.717  1.00  0.00    +0.000 HD
ENDBRANCH   1   7
BRANCH   5   9
ATOM      9  O   UNL     1       1.703  -3.213   0.414  1.00  0.00    +0.000 OA
ATOM     10  H   UNL     1       1.918  -3.632  -0.430  1.00  0.00    +0.000 HD
ENDBRANCH   5   9
BRANCH   6  11
ATOM     11  O   UNL     1       2.548  -2.881   3.586  1.00  0.00    +0.000 OA
ATOM     12  H   UNL     1       3.412  -3.111   3.957  1.00  0.00    +0.000 HD
ENDBRANCH   6  11
BRANCH   6  13
ATOM     13  O   UNL     1       1.763  -1.235   2.106  1.00  0.00    +0.000 OA
ATOM     14  H   UNL     1       1.740  -1.097   1.149  1.00  0.00    +0.000 HD
ENDBRANCH   6  13
TORSDOF 4
ENDMDL
MODEL 6
REMARK VINA RESULT:    -4.913      1.315      2.620
REMARK INTER + INTRA:          -5.488
REMARK INTER:                  -5.488
REMARK INTRA:                   0.000
REMARK UNBOUND:                 0.000
REMARK  Name = PAV
REMARK  5 active torsions:
REMARK  status: ('A' for Active; 'I' for Inactive)
REMARK    1  A    between atoms: O_1  and  C_2
REMARK    2  A    between atoms: C_2  and  C_3
REMARK    3  A    between atoms: C_6  and  O_7
REMARK    4  A    between atoms: C_8  and  O_9
REMARK    5  A    between atoms: C_8  and  O_10
REMARK                            x       y       z     vdW  Elec       q    Type
REMARK                         _______ _______ _______ _____ _____    ______ ____
ROOT
ATOM      1  C   UNL     1       2.521  -2.143   1.371  1.00  0.00    +0.000 C 
ATOM      2  C   UNL     1       1.401  -1.549   2.226  1.00  0.00    +0.000 C 
ATOM      3  O   UNL     1       2.200  -2.002  -0.022  1.00  0.00    +0.000 OA
ATOM      4  C   UNL     1       3.444  -1.789  -0.722  1.00  0.00    +0.000 C 
ATOM      5  C   UNL     1       4.231  -0.845   0.221  1.00  0.00    +0.000 C 
ATOM      6  C   UNL     1       3.835  -1.381   1.621  1.00  0.00    +0.000 C 
ENDROOT
BRANCH   1   7
ATOM      7  O   UNL     1       2.694  -3.526   1.692  1.00  0.00    +0.000 OA
ATOM      8  H   UNL     1       3.620  -3.640   1.948  1.00  0.00    +0.000 HD
ENDBRANCH   1   7
BRANCH   5   9
ATOM      9  O   UNL     1       5.639  -0.970   0.008  1.00  0.00    +0.000 OA
ATOM     10  H   UNL     1       6.019  -1.301   0.832  1.00  0.00    +0.000 HD
ENDBRANCH   5   9
BRANCH   6  11
ATOM     11  O   UNL     1       3.617  -0.297   2.527  1.00  0.00    +0.000 OA
ATOM     12  H   UNL     1       4.414   0.252   2.503  1.00  0.00    +0.000 HD
ENDBRANCH   6  11
BRANCH   6  13
ATOM     13  O   UNL     1       4.841  -2.260   2.125  1.00  0.00    +0.000 OA
ATOM     14  H   UNL     1       4.599  -3.153   1.842  1.00  0.00    +0.000 HD
ENDBRANCH   6  13
TORSDOF 4
ENDMDL
MODEL 7
REMARK VINA RESULT:    -4.881      1.217      2.972
REMARK INTER + INTRA:          -5.452
REMARK INTER:                  -5.452
REMARK INTRA:                   0.000
REMARK UNBOUND:                 0.000
REMARK  Name = PAV
REMARK  5 active torsions:
REMARK  status: ('A' for Active; 'I' for Inactive)
REMARK    1  A    between atoms: O_1  and  C_2
REMARK    2  A    between atoms: C_2  and  C_3
REMARK    3  A    between atoms: C_6  and  O_7
REMARK    4  A    between atoms: C_8  and  O_9
REMARK    5  A    between atoms: C_8  and  O_10
REMARK                            x       y       z     vdW  Elec       q    Type
REMARK                         _______ _______ _______ _____ _____    ______ ____
ROOT
ATOM      1  C   UNL     1       3.042  -2.339   0.476  1.00  0.00    +0.000 C 
ATOM      2  C   UNL     1       2.020  -1.630  -0.414  1.00  0.00    +0.000 C 
ATOM      3  O   UNL     1       4.370  -1.915   0.127  1.00  0.00    +0.000 OA
ATOM      4  C   UNL     1       5.143  -1.903   1.345  1.00  0.00    +0.000 C 
ATOM      5  C   UNL     1       4.155  -1.329   2.393  1.00  0.00    +0.000 C 
ATOM      6  C   UNL     1       2.809  -1.960   1.949  1.00  0.00    +0.000 C 
ENDROOT
BRANCH   1   7
ATOM      7  O   UNL     1       2.927  -3.755   0.314  1.00  0.00    +0.000 OA
ATOM      8  H   UNL     1       3.800  -4.129   0.497  1.00  0.00    +0.000 HD
ENDBRANCH   1   7
BRANCH   5   9
ATOM      9  O   UNL     1       4.507  -1.755   3.712  1.00  0.00    +0.000 OA
ATOM     10  H   UNL     1       3.714  -1.665   4.256  1.00  0.00    +0.000 HD
ENDBRANCH   5   9
BRANCH   6  11
ATOM     11  O   UNL     1       1.751  -1.007   2.058  1.00  0.00    +0.000 OA
ATOM     12  H   UNL     1       0.922  -1.496   1.960  1.00  0.00    +0.000 HD
ENDBRANCH   6  11
BRANCH   6  13
ATOM     13  O   UNL     1       2.520  -3.121   2.729  1.00  0.00    +0.000 OA
ATOM     14  H   UNL     1       1.606  -3.370   2.532  1.00  0.00    +0.000 HD
ENDBRANCH   6  13
TORSDOF 4
ENDMDL
MODEL 8
REMARK VINA RESULT:    -4.711      1.485      2.449
REMARK INTER + INTRA:          -5.262
REMARK INTER:                  -5.262
REMARK INTRA:                   0.000
REMARK UNBOUND:                 0.000
REMARK  Name = PAV
REMARK  5 active torsions:
REMARK  status: ('A' for Active; 'I' for Inactive)
REMARK    1  A    between atoms: O_1  and  C_2
REMARK    2  A    between atoms: C_2  and  C_3
REMARK    3  A    between atoms: C_6  and  O_7
REMARK    4  A    between atoms: C_8  and  O_9
REMARK    5  A    between atoms: C_8  and  O_10
REMARK                            x       y       z     vdW  Elec       q    Type
REMARK                         _______ _______ _______ _____ _____    ______ ____
ROOT
ATOM      1  C   UNL     1       3.311  -2.184   2.059  1.00  0.00    +0.000 C 
ATOM      2  C   UNL     1       4.393  -1.674   3.012  1.00  0.00    +0.000 C 
ATOM      3  O   UNL     1       2.333  -1.155   1.834  1.00  0.00    +0.000 OA
ATOM      4  C   UNL     1       1.875  -1.299   0.473  1.00  0.00    +0.000 C 
ATOM      5  C   UNL     1       3.171  -1.634  -0.309  1.00  0.00    +0.000 C 
ATOM      6  C   UNL     1       3.934  -2.535   0.696  1.00  0.00    +0.000 C 
ENDROOT
BRANCH   1   7
ATOM      7  O   UNL     1       2.680  -3.340   2.617  1.00  0.00    +0.000 OA
ATOM      8  H   UNL     1       3.311  -4.069   2.535  1.00  0.00    +0.000 HD
ENDBRANCH   1   7
BRANCH   5   9
ATOM      9  O   UNL     1       2.871  -2.350  -1.509  1.00  0.00    +0.000 OA
ATOM     10  H   UNL     1       3.715  -2.626  -1.889  1.00  0.00    +0.000 HD
ENDBRANCH   5   9
BRANCH   6  11
ATOM     11  O   UNL     1       5.328  -2.222   0.689  1.00  0.00    +0.000 OA
ATOM     12  H   UNL     1       5.756  -2.863   0.105  1.00  0.00    +0.000 HD
ENDBRANCH   6  11
BRANCH   6  13
ATOM     13  O   UNL     1       3.729  -3.914   0.387  1.00  0.00    +0.000 OA
ATOM     14  H   UNL     1       4.276  -4.422   1.002  1.00  0.00    +0.000 HD
ENDBRANCH   6  13
TORSDOF 4
ENDMDL
MODEL 9
REMARK VINA RESULT:    -4.684     12.552     13.631
REMARK INTER + INTRA:          -5.231
REMARK INTER:                  -5.231
REMARK INTRA:                   0.000
REMARK UNBOUND:                 0.000
REMARK  Name = PAV
REMARK  5 active torsions:
REMARK  status: ('A' for Active; 'I' for Inactive)
REMARK    1  A    between atoms: O_1  and  C_2
REMARK    2  A    between atoms: C_2  and  C_3
REMARK    3  A    between atoms: C_6  and  O_7
REMARK    4  A    between atoms: C_8  and  O_9
REMARK    5  A    between atoms: C_8  and  O_10
REMARK                            x       y       z     vdW  Elec       q    Type
REMARK                         _______ _______ _______ _____ _____    ______ ____
ROOT
ATOM      1  C   UNL     1      -8.204  -9.330   1.017  1.00  0.00    +0.000 C 
ATOM      2  C   UNL     1      -9.392  -8.564   1.602  1.00  0.00    +0.000 C 
ATOM      3  O   UNL     1      -8.597 -10.677   0.706  1.00  0.00    +0.000 OA
ATOM      4  C   UNL     1      -7.860 -11.070  -0.470  1.00  0.00    +0.000 C 
ATOM      5  C   UNL     1      -7.881  -9.796  -1.352  1.00  0.00    +0.000 C 
ATOM      6  C   UNL     1      -7.747  -8.668  -0.296  1.00  0.00    +0.000 C 
ENDROOT
BRANCH   1   7
ATOM      7  O   UNL     1      -7.126  -9.343   1.955  1.00  0.00    +0.000 OA
ATOM      8  H   UNL     1      -6.473  -8.704   1.639  1.00  0.00    +0.000 HD
ENDBRANCH   1   7
BRANCH   5   9
ATOM      9  O   UNL     1      -6.773  -9.782  -2.255  1.00  0.00    +0.000 OA
ATOM     10  H   UNL     1      -7.084 -10.165  -3.085  1.00  0.00    +0.000 HD
ENDBRANCH   5   9
BRANCH   6  11
ATOM     11  O   UNL     1      -8.602  -7.572  -0.625  1.00  0.00    +0.000 OA
ATOM     12  H   UNL     1      -8.144  -6.766  -0.346  1.00  0.00    +0.000 HD
ENDBRANCH   6  11
BRANCH   6  13
ATOM     13  O   UNL     1      -6.390  -8.234  -0.196  1.00  0.00    +0.000 OA
ATOM     14  H   UNL     1      -5.836  -9.012  -0.348  1.00  0.00    +0.000 HD
ENDBRANCH   6  13
TORSDOF 4
ENDMDL
