MODEL 1
REMARK VINA RESULT:    -6.008      0.000      0.000
REMARK INTER + INTRA:          -6.711
REMARK INTER:                  -6.711
REMARK INTRA:                   0.000
REMARK UNBOUND:                 0.000
REMARK  Name = RIP
REMARK  4 active torsions:
REMARK  status: ('A' for Active; 'I' for Inactive)
REMARK    1  A    between atoms: C_1  and  O_6
REMARK    2  A    between atoms: C_2  and  O_7
REMARK    3  A    between atoms: C_3  and  O_8
REMARK    4  A    between atoms: C_4  and  O_9
REMARK                            x       y       z     vdW  Elec       q    Type
REMARK                         _______ _______ _______ _____ _____    ______ ____
ROOT
ATOM      1  C   UNL     1       4.205  -2.910   0.095  1.00  0.00    +0.000 C 
ATOM      2  C   UNL     1       4.275  -1.411   0.385  1.00  0.00    +0.000 C 
ATOM      3  C   UNL     1       3.619  -1.131   1.742  1.00  0.00    +0.000 C 
ATOM      4  C   UNL     1       2.209  -1.732   1.739  1.00  0.00    +0.000 C 
ATOM      5  C   UNL     1       2.296  -3.208   1.346  1.00  0.00    +0.000 C 
ATOM      6  O   UNL     1       2.843  -3.328   0.036  1.00  0.00    +0.000 OA
ENDROOT
BRANCH   1   7
ATOM      7  O   UNL     1       4.841  -3.181  -1.155  1.00  0.00    +0.000 OA
ATOM      8  H   UNL     1       4.954  -2.330  -1.601  1.00  0.00    +0.000 HD
ENDBRANCH   1   7
BRANCH   2   9
ATOM      9  O   UNL     1       5.641  -0.993   0.417  1.00  0.00    +0.000 OA
ATOM     10  H   UNL     1       5.718  -0.342   1.127  1.00  0.00    +0.000 HD
ENDBRANCH   2   9
BRANCH   3  11
ATOM     11  O   UNL     1       4.394  -1.731   2.781  1.00  0.00    +0.000 OA
ATOM     12  H   UNL     1       3.966  -2.570   3.001  1.00  0.00    +0.000 HD
ENDBRANCH   3  11
BRANCH   4  13
ATOM     13  O   UNL     1       1.638  -1.616   3.043  1.00  0.00    +0.000 OA
ATOM     14  H   UNL     1       2.200  -2.128   3.641  1.00  0.00    +0.000 HD
ENDBRANCH   4  13
TORSDOF 4
ENDMDL
MODEL 2
REMARK VINA RESULT:    -5.993      1.025      3.262
REMARK INTER + INTRA:          -6.694
REMARK INTER:                  -6.694
REMARK INTRA:                   0.000
REMARK UNBOUND:                 0.000
REMARK  Name = RIP
REMARK  4 active torsions:
REMARK  status: ('A' for Active; 'I' for Inactive)
REMARK    1  A    between atoms: C_1  and  O_6
REMARK    2  A    between atoms: C_2  and  O_7
REMARK    3  A    between atoms: C_3  and  O_8
REMARK    4  A    between atoms: C_4  and  O_9
REMARK                            x       y       z     vdW  Elec       q    Type
REMARK                         _______ _______ _______ _____ _____    ______ ____
ROOT
ATOM      1  C   UNL     1       2.744  -1.286   1.703  1.00  0.00    +0.000 C 
ATOM      2  C   UNL     1       4.024  -1.974   2.179  1.00  0.00    +0.000 C 
ATOM      3  C   UNL     1       4.943  -2.211   0.975  1.00  0.00    +0.000 C 
ATOM      4  C   UNL     1       4.156  -2.965  -0.102  1.00  0.00    +0.000 C 
ATOM      5  C   UNL     1       2.865  -2.201  -0.405  1.00  0.00    +0.000 C 
ATOM      6  O   UNL     1       2.064  -2.122   0.770  1.00  0.00    +0.000 OA
ENDROOT
BRANCH   1   7
ATOM      7  O   UNL     1       1.896  -1.036   2.826  1.00  0.00    +0.000 OA
ATOM      8  H   UNL     1       1.994  -1.790   3.423  1.00  0.00    +0.000 HD
ENDBRANCH   1   7
BRANCH   2   9
ATOM      9  O   UNL     1       4.688  -1.143   3.133  1.00  0.00    +0.000 OA
ATOM     10  H   UNL     1       4.481  -0.229   2.899  1.00  0.00    +0.000 HD
ENDBRANCH   2   9
BRANCH   3  11
ATOM     11  O   UNL     1       5.386  -0.956   0.456  1.00  0.00    +0.000 OA
ATOM     12  H   UNL     1       5.813  -0.486   1.185  1.00  0.00    +0.000 HD
ENDBRANCH   3  11
BRANCH   4  13
ATOM     13  O   UNL     1       4.944  -3.062  -1.290  1.00  0.00    +0.000 OA
ATOM     14  H   UNL     1       4.338  -2.960  -2.037  1.00  0.00    +0.000 HD
ENDBRANCH   4  13
TORSDOF 4
ENDMDL
MODEL 3
REMARK VINA RESULT:    -5.968      1.287      3.736
REMARK INTER + INTRA:          -6.666
REMARK INTER:                  -6.666
REMARK INTRA:                   0.000
REMARK UNBOUND:                 0.000
REMARK  Name = RIP
REMARK  4 active torsions:
REMARK  status: ('A' for Active; 'I' for Inactive)
REMARK    1  A    between atoms: C_1  and  O_6
REMARK    2  A    between atoms: C_2  and  O_7
REMARK    3  A    between atoms: C_3  and  O_8
REMARK    4  A    between atoms: C_4  and  O_9
REMARK                            x       y       z     vdW  Elec       q    Type
REMARK                         _______ _______ _______ _____ _____    ______ ____
ROOT
ATOM      1  C   UNL     1       3.872  -1.307   1.763  1.00  0.00    +0.000 C 
ATOM      2  C   UNL     1       2.826  -1.374   0.649  1.00  0.00    +0.000 C 
ATOM      3  C   UNL     1       3.146  -2.560  -0.268  1.00  0.00    +0.000 C 
ATOM      4  C   UNL     1       4.599  -2.438  -0.740  1.00  0.00    +0.000 C 
ATOM      5  C   UNL     1       5.510  -2.290   0.480  1.00  0.00    +0.000 C 
ATOM      6  O   UNL     1       5.167  -1.109   1.199  1.00  0.00    +0.000 OA
ENDROOT
BRANCH   1   7
ATOM      7  O   UNL     1       3.562  -0.221   2.638  1.00  0.00    +0.000 OA
ATOM      8  H   UNL     1       3.656   0.590   2.120  1.00  0.00    +0.000 HD
ENDBRANCH   1   7
BRANCH   2   9
ATOM      9  O   UNL     1       1.528  -1.546   1.221  1.00  0.00    +0.000 OA
ATOM     10  H   UNL     1       1.204  -0.665   1.448  1.00  0.00    +0.000 HD
ENDBRANCH   2   9
BRANCH   3  11
ATOM     11  O   UNL     1       2.977  -3.782   0.453  1.00  0.00    +0.000 OA
ATOM     12  H   UNL     1       2.835  -4.477  -0.204  1.00  0.00    +0.000 HD
ENDBRANCH   3  11
BRANCH   4  13
ATOM     13  O   UNL     1       4.964  -3.610  -1.471  1.00  0.00    +0.000 OA
ATOM     14  H   UNL     1       5.532  -3.319  -2.199  1.00  0.00    +0.000 HD
ENDBRANCH   4  13
TORSDOF 4
ENDMDL
MODEL 4
REMARK VINA RESULT:    -5.967      1.324      3.458
REMARK INTER + INTRA:          -6.665
REMARK INTER:                  -6.665
REMARK INTRA:                   0.000
REMARK UNBOUND:                 0.000
REMARK  Name = RIP
REMARK  4 active torsions:
REMARK  status: ('A' for Active; 'I' for Inactive)
REMARK    1  A    between atoms: C_1  and  O_6
REMARK    2  A    between atoms: C_2  and  O_7
REMARK    3  A    between atoms: C_3  and  O_8
REMARK    4  A    between atoms: C_4  and  O_9
REMARK                            x       y       z     vdW  Elec       q    Type
REMARK                         _______ _______ _______ _____ _____    ______ ____
ROOT
ATOM      1  C   UNL     1       4.365  -1.761   2.313  1.00  0.00    +0.000 C 
ATOM      2  C   UNL     1       2.842  -1.880   2.379  1.00  0.00    +0.000 C 
ATOM      3  C   UNL     1       2.322  -2.413   1.040  1.00  0.00    +0.000 C 
ATOM      4  C   UNL     1       2.860  -1.521  -0.085  1.00  0.00    +0.000 C 
ATOM      5  C   UNL     1       4.383  -1.429   0.036  1.00  0.00    +0.000 C 
ATOM      6  O   UNL     1       4.734  -0.844   1.286  1.00  0.00    +0.000 OA
ENDROOT
BRANCH   1   7
ATOM      7  O   UNL     1       4.858  -1.294   3.570  1.00  0.00    +0.000 OA
ATOM      8  H   UNL     1       4.136  -1.388   4.205  1.00  0.00    +0.000 HD
ENDBRANCH   1   7
BRANCH   2   9
ATOM      9  O   UNL     1       2.477  -2.781   3.427  1.00  0.00    +0.000 OA
ATOM     10  H   UNL     1       3.160  -3.465   3.458  1.00  0.00    +0.000 HD
ENDBRANCH   2   9
BRANCH   3  11
ATOM     11  O   UNL     1       2.775  -3.753   0.848  1.00  0.00    +0.000 OA
ATOM     12  H   UNL     1       3.247  -3.771   0.004  1.00  0.00    +0.000 HD
ENDBRANCH   3  11
BRANCH   4  13
ATOM     13  O   UNL     1       2.513  -2.086  -1.350  1.00  0.00    +0.000 OA
ATOM     14  H   UNL     1       1.848  -2.768  -1.179  1.00  0.00    +0.000 HD
ENDBRANCH   4  13
TORSDOF 4
ENDMDL
MODEL 5
REMARK VINA RESULT:    -5.590      1.215      3.139
REMARK INTER + INTRA:          -6.243
REMARK INTER:                  -6.243
REMARK INTRA:                   0.000
REMARK UNBOUND:                 0.000
REMARK  Name = RIP
REMARK  4 active torsions:
REMARK  status: ('A' for Active; 'I' for Inactive)
REMARK    1  A    between atoms: C_1  and  O_6
REMARK    2  A    between atoms: C_2  and  O_7
REMARK    3  A    between atoms: C_3  and  O_8
REMARK    4  A    between atoms: C_4  and  O_9
REMARK                            x       y       z     vdW  Elec       q    Type
REMARK                         _______ _______ _______ _____ _____    ______ ____
ROOT
ATOM      1  C   UNL     1       2.236  -2.202   0.528  1.00  0.00    +0.000 C 
ATOM      2  C   UNL     1       2.966  -2.676   1.785  1.00  0.00    +0.000 C 
ATOM      3  C   UNL     1       4.296  -1.925   1.907  1.00  0.00    +0.000 C 
ATOM      4  C   UNL     1       5.075  -2.091   0.597  1.00  0.00    +0.000 C 
ATOM      5  C   UNL     1       4.185  -1.661  -0.571  1.00  0.00    +0.000 C 
ATOM      6  O   UNL     1       3.026  -2.487  -0.626  1.00  0.00    +0.000 OA
ENDROOT
BRANCH   1   7
ATOM      7  O   UNL     1       0.982  -2.878   0.425  1.00  0.00    +0.000 OA
ATOM      8  H   UNL     1       1.158  -3.817   0.575  1.00  0.00    +0.000 HD
ENDBRANCH   1   7
BRANCH   2   9
ATOM      9  O   UNL     1       2.159  -2.412   2.934  1.00  0.00    +0.000 OA
ATOM     10  H   UNL     1       2.110  -3.236   3.437  1.00  0.00    +0.000 HD
ENDBRANCH   2   9
BRANCH   3  11
ATOM     11  O   UNL     1       4.044  -0.539   2.143  1.00  0.00    +0.000 OA
ATOM     12  H   UNL     1       3.201  -0.484   2.613  1.00  0.00    +0.000 HD
ENDBRANCH   3  11
BRANCH   4  13
ATOM     13  O   UNL     1       6.247  -1.275   0.632  1.00  0.00    +0.000 OA
ATOM     14  H   UNL     1       6.093  -0.592   1.300  1.00  0.00    +0.000 HD
ENDBRANCH   4  13
TORSDOF 4
ENDMDL
MODEL 6
REMARK VINA RESULT:    -5.451      1.329      2.413
REMARK INTER + INTRA:          -6.088
REMARK INTER:                  -6.088
REMARK INTRA:                   0.000
REMARK UNBOUND:                 0.000
REMARK  Name = RIP
REMARK  4 active torsions:
REMARK  status: ('A' for Active; 'I' for Inactive)
REMARK    1  A    between atoms: C_1  and  O_6
REMARK    2  A    between atoms: C_2  and  O_7
REMARK    3  A    between atoms: C_3  and  O_8
REMARK    4  A    between atoms: C_4  and  O_9
REMARK                            x       y       z     vdW  Elec       q    Type
REMARK                         _______ _______ _______ _____ _____    ______ ____
ROOT
ATOM      1  C   UNL     1       4.177  -1.409   0.219  1.00  0.00    +0.000 C 
ATOM      2  C   UNL     1       3.094  -2.453  -0.057  1.00  0.00    +0.000 C 
ATOM      3  C   UNL     1       2.174  -2.556   1.165  1.00  0.00    +0.000 C 
ATOM      4  C   UNL     1       3.035  -2.818   2.406  1.00  0.00    +0.000 C 
ATOM      5  C   UNL     1       4.123  -1.745   2.495  1.00  0.00    +0.000 C 
ATOM      6  O   UNL     1       4.958  -1.808   1.343  1.00  0.00    +0.000 OA
ENDROOT
BRANCH   1   7
ATOM      7  O   UNL     1       5.019  -1.287  -0.929  1.00  0.00    +0.000 OA
ATOM      8  H   UNL     1       4.805  -0.440  -1.343  1.00  0.00    +0.000 HD
ENDBRANCH   1   7
BRANCH   2   9
ATOM      9  O   UNL     1       2.331  -2.061  -1.200  1.00  0.00    +0.000 OA
ATOM     10  H   UNL     1       2.392  -1.098  -1.259  1.00  0.00    +0.000 HD
ENDBRANCH   2   9
BRANCH   3  11
ATOM     11  O   UNL     1       1.456  -1.333   1.329  1.00  0.00    +0.000 OA
ATOM     12  H   UNL     1       1.684  -0.771   0.576  1.00  0.00    +0.000 HD
ENDBRANCH   3  11
BRANCH   4  13
ATOM     13  O   UNL     1       2.216  -2.766   3.575  1.00  0.00    +0.000 OA
ATOM     14  H   UNL     1       2.434  -1.942   4.033  1.00  0.00    +0.000 HD
ENDBRANCH   4  13
TORSDOF 4
ENDMDL
MODEL 7
REMARK VINA RESULT:    -5.275      1.405      2.741
REMARK INTER + INTRA:          -5.891
REMARK INTER:                  -5.891
REMARK INTRA:                   0.000
REMARK UNBOUND:                 0.000
REMARK  Name = RIP
REMARK  4 active torsions:
REMARK  status: ('A' for Active; 'I' for Inactive)
REMARK    1  A    between atoms: C_1  and  O_6
REMARK    2  A    between atoms: C_2  and  O_7
REMARK    3  A    between atoms: C_3  and  O_8
REMARK    4  A    between atoms: C_4  and  O_9
REMARK                            x       y       z     vdW  Elec       q    Type
REMARK                         _______ _______ _______ _____ _____    ______ ____
ROOT
ATOM      1  C   UNL     1       4.282  -1.424   2.630  1.00  0.00    +0.000 C 
ATOM      2  C   UNL     1       4.753  -2.138   1.363  1.00  0.00    +0.000 C 
ATOM      3  C   UNL     1       3.582  -2.243   0.381  1.00  0.00    +0.000 C 
ATOM      4  C   UNL     1       2.397  -2.899   1.099  1.00  0.00    +0.000 C 
ATOM      5  C   UNL     1       2.104  -2.127   2.387  1.00  0.00    +0.000 C 
ATOM      6  O   UNL     1       3.238  -2.175   3.248  1.00  0.00    +0.000 OA
ENDROOT
BRANCH   1   7
ATOM      7  O   UNL     1       5.378  -1.297   3.538  1.00  0.00    +0.000 OA
ATOM      8  H   UNL     1       5.463  -2.146   3.993  1.00  0.00    +0.000 HD
ENDBRANCH   1   7
BRANCH   2   9
ATOM      9  O   UNL     1       5.817  -1.395   0.763  1.00  0.00    +0.000 OA
ATOM     10  H   UNL     1       6.233  -1.978   0.114  1.00  0.00    +0.000 HD
ENDBRANCH   2   9
BRANCH   3  11
ATOM     11  O   UNL     1       3.210  -0.938  -0.063  1.00  0.00    +0.000 OA
ATOM     12  H   UNL     1       2.332  -0.758   0.301  1.00  0.00    +0.000 HD
ENDBRANCH   3  11
BRANCH   4  13
ATOM     13  O   UNL     1       1.248  -2.869   0.251  1.00  0.00    +0.000 OA
ATOM     14  H   UNL     1       1.129  -3.766  -0.091  1.00  0.00    +0.000 HD
ENDBRANCH   4  13
TORSDOF 4
ENDMDL
MODEL 8
REMARK VINA RESULT:    -5.074      1.314      3.441
REMARK INTER + INTRA:          -5.668
REMARK INTER:                  -5.668
REMARK INTRA:                   0.000
REMARK UNBOUND:                 0.000
REMARK  Name = RIP
REMARK  4 active torsions:
REMARK  status: ('A' for Active; 'I' for Inactive)
REMARK    1  A    between atoms: C_1  and  O_6
REMARK    2  A    between atoms: C_2  and  O_7
REMARK    3  A    between atoms: C_3  and  O_8
REMARK    4  A    between atoms: C_4  and  O_9
REMARK                            x       y       z     vdW  Elec       q    Type
REMARK                         _______ _______ _______ _____ _____    ______ ____
ROOT
ATOM      1  C   UNL     1       2.441  -1.793   1.216  1.00  0.00    +0.000 C 
ATOM      2  C   UNL     1       3.006  -1.381  -0.144  1.00  0.00    +0.000 C 
ATOM      3  C   UNL     1       4.472  -1.818  -0.231  1.00  0.00    +0.000 C 
ATOM      4  C   UNL     1       5.223  -1.263   0.985  1.00  0.00    +0.000 C 
ATOM      5  C   UNL     1       4.489  -1.684   2.260  1.00  0.00    +0.000 C 
ATOM      6  O   UNL     1       3.170  -1.147   2.258  1.00  0.00    +0.000 OA
ENDROOT
BRANCH   1   7
ATOM      7  O   UNL     1       1.065  -1.414   1.292  1.00  0.00    +0.000 OA
ATOM      8  H   UNL     1       0.590  -2.167   1.669  1.00  0.00    +0.000 HD
ENDBRANCH   1   7
BRANCH   2   9
ATOM      9  O   UNL     1       2.255  -2.011  -1.184  1.00  0.00    +0.000 OA
ATOM     10  H   UNL     1       2.548  -1.618  -2.017  1.00  0.00    +0.000 HD
ENDBRANCH   2   9
BRANCH   3  11
ATOM     11  O   UNL     1       4.548  -3.244  -0.231  1.00  0.00    +0.000 OA
ATOM     12  H   UNL     1       3.834  -3.563  -0.799  1.00  0.00    +0.000 HD
ENDBRANCH   3  11
BRANCH   4  13
ATOM     13  O   UNL     1       6.553  -1.784   1.004  1.00  0.00    +0.000 OA
ATOM     14  H   UNL     1       6.854  -1.815   0.085  1.00  0.00    +0.000 HD
ENDBRANCH   4  13
TORSDOF 4
ENDMDL
MODEL 9
REMARK VINA RESULT:    -4.917      1.234      2.143
REMARK INTER + INTRA:          -5.492
REMARK INTER:                  -5.492
REMARK INTRA:                   0.000
REMARK UNBOUND:                 0.000
REMARK  Name = RIP
REMARK  4 active torsions:
REMARK  status: ('A' for Active; 'I' for Inactive)
REMARK    1  A    between atoms: C_1  and  O_6
REMARK    2  A    between atoms: C_2  and  O_7
REMARK    3  A    between atoms: C_3  and  O_8
REMARK    4  A    between atoms: C_4  and  O_9
REMARK                            x       y       z     vdW  Elec       q    Type
REMARK                         _______ _______ _______ _____ _____    ______ ____
ROOT
ATOM      1  C   UNL     1       5.052  -2.145   1.256  1.00  0.00    +0.000 C 
ATOM      2  C   UNL     1       4.110  -1.062   1.781  1.00  0.00    +0.000 C 
ATOM      3  C   UNL     1       2.684  -1.619   1.833  1.00  0.00    +0.000 C 
ATOM      4  C   UNL     1       2.327  -2.184   0.454  1.00  0.00    +0.000 C 
ATOM      5  C   UNL     1       3.405  -3.184   0.029  1.00  0.00    +0.000 C 
ATOM      6  O   UNL     1       4.665  -2.525  -0.063  1.00  0.00    +0.000 OA
ENDROOT
BRANCH   1   7
ATOM      7  O   UNL     1       6.389  -1.641   1.234  1.00  0.00    +0.000 OA
ATOM      8  H   UNL     1       6.565  -1.359   0.326  1.00  0.00    +0.000 HD
ENDBRANCH   1   7
BRANCH   2   9
ATOM      9  O   UNL     1       4.519  -0.666   3.092  1.00  0.00    +0.000 OA
ATOM     10  H   UNL     1       4.562  -1.471   3.626  1.00  0.00    +0.000 HD
ENDBRANCH   2   9
BRANCH   3  11
ATOM     11  O   UNL     1       2.610  -2.658   2.810  1.00  0.00    +0.000 OA
ATOM     12  H   UNL     1       3.503  -2.776   3.161  1.00  0.00    +0.000 HD
ENDBRANCH   3  11
BRANCH   4  13
ATOM     13  O   UNL     1       1.062  -2.844   0.520  1.00  0.00    +0.000 OA
ATOM     14  H   UNL     1       0.511  -2.332   1.128  1.00  0.00    +0.000 HD
ENDBRANCH   4  13
TORSDOF 4
ENDMDL
