MODEL 1
REMARK VINA RESULT:    -6.093      0.000      0.000
REMARK INTER + INTRA:          -7.161
REMARK INTER:                  -7.161
REMARK INTRA:                   0.000
REMARK UNBOUND:                 0.000
REMARK  Name = INS
REMARK  6 active torsions:
REMARK  status: ('A' for Active; 'I' for Inactive)
REMARK    1  A    between atoms: C_1  and  O_7
REMARK    2  A    between atoms: C_2  and  O_8
REMARK    3  A    between atoms: C_3  and  O_9
REMARK    4  A    between atoms: C_4  and  O_10
REMARK    5  A    between atoms: C_5  and  O_11
REMARK    6  A    between atoms: C_6  and  O_12
REMARK                            x       y       z     vdW  Elec       q    Type
REMARK                         _______ _______ _______ _____ _____    ______ ____
ROOT
ATOM      1  C   UNL     1       2.165  -1.710   0.555  1.00  0.00    +0.000 C 
ATOM      2  C   UNL     1       3.043  -2.584  -0.342  1.00  0.00    +0.000 C 
ATOM      3  C   UNL     1       4.473  -2.040  -0.340  1.00  0.00    +0.000 C 
ATOM      4  C   UNL     1       5.024  -2.059   1.088  1.00  0.00    +0.000 C 
ATOM      5  C   UNL     1       4.146  -1.185   1.985  1.00  0.00    +0.000 C 
ATOM      6  C   UNL     1       2.715  -1.728   1.982  1.00  0.00    +0.000 C 
ENDROOT
BRANCH   1   7
ATOM      7  O   UNL     1       0.829  -2.217   0.553  1.00  0.00    +0.000 OA
ATOM      8  H   UNL     1       0.654  -2.865  -0.143  1.00  0.00    +0.000 HD
ENDBRANCH   1   7
BRANCH   2   9
ATOM      9  O   UNL     1       3.043  -3.924   0.152  1.00  0.00    +0.000 OA
ATOM     10  H   UNL     1       3.682  -4.083   0.860  1.00  0.00    +0.000 HD
ENDBRANCH   2   9
BRANCH   3  11
ATOM     11  O   UNL     1       5.294  -2.856  -1.178  1.00  0.00    +0.000 OA
ATOM     12  H   UNL     1       5.755  -3.565  -0.707  1.00  0.00    +0.000 HD
ENDBRANCH   3  11
BRANCH   4  13
ATOM     13  O   UNL     1       6.360  -1.551   1.089  1.00  0.00    +0.000 OA
ATOM     14  H   UNL     1       6.942  -1.972   0.442  1.00  0.00    +0.000 HD
ENDBRANCH   4  13
BRANCH   5  15
ATOM     15  O   UNL     1       4.659  -1.201   3.318  1.00  0.00    +0.000 OA
ATOM     16  H   UNL     1       4.704  -0.330   3.734  1.00  0.00    +0.000 HD
ENDBRANCH   5  15
BRANCH   6  17
ATOM     17  O   UNL     1       1.894  -0.912   2.820  1.00  0.00    +0.000 OA
ATOM     18  H   UNL     1       1.364  -1.410   3.458  1.00  0.00    +0.000 HD
ENDBRANCH   6  17
TORSDOF 6
ENDMDL
MODEL 2
REMARK VINA RESULT:    -6.007      0.954      3.278
REMARK INTER + INTRA:          -7.060
REMARK INTER:                  -7.060
REMARK INTRA:                   0.000
REMARK UNBOUND:                 0.000
REMARK  Name = INS
REMARK  6 active torsions:
REMARK  status: ('A' for Active; 'I' for Inactive)
REMARK    1  A    between atoms: C_1  and  O_7
REMARK    2  A    between atoms: C_2  and  O_8
REMARK    3  A    between atoms: C_3  and  O_9
REMARK    4  A    between atoms: C_4  and  O_10
REMARK    5  A    between atoms: C_5  and  O_11
REMARK    6  A    between atoms: C_6  and  O_12
REMARK                            x       y       z     vdW  Elec       q    Type
REMARK                         _______ _______ _______ _____ _____    ______ ____
ROOT
ATOM      1  C   UNL     1       4.524  -2.758  -0.045  1.00  0.00    +0.000 C 
ATOM      2  C   UNL     1       3.032  -2.653  -0.368  1.00  0.00    +0.000 C 
ATOM      3  C   UNL     1       2.221  -2.813   0.919  1.00  0.00    +0.000 C 
ATOM      4  C   UNL     1       2.608  -1.709   1.906  1.00  0.00    +0.000 C 
ATOM      5  C   UNL     1       4.100  -1.813   2.229  1.00  0.00    +0.000 C 
ATOM      6  C   UNL     1       4.912  -1.655   0.941  1.00  0.00    +0.000 C 
ENDROOT
BRANCH   1   7
ATOM      7  O   UNL     1       5.282  -2.610  -1.248  1.00  0.00    +0.000 OA
ATOM      8  H   UNL     1       5.715  -3.423  -1.543  1.00  0.00    +0.000 HD
ENDBRANCH   1   7
BRANCH   2   9
ATOM      9  O   UNL     1       2.758  -1.378  -0.948  1.00  0.00    +0.000 OA
ATOM     10  H   UNL     1       3.413  -0.699  -0.734  1.00  0.00    +0.000 HD
ENDBRANCH   2   9
BRANCH   3  11
ATOM     11  O   UNL     1       0.827  -2.716   0.619  1.00  0.00    +0.000 OA
ATOM     12  H   UNL     1       0.594  -3.025  -0.268  1.00  0.00    +0.000 HD
ENDBRANCH   3  11
BRANCH   4  13
ATOM     13  O   UNL     1       1.849  -1.858   3.109  1.00  0.00    +0.000 OA
ATOM     14  H   UNL     1       2.172  -2.558   3.693  1.00  0.00    +0.000 HD
ENDBRANCH   4  13
BRANCH   5  15
ATOM     15  O   UNL     1       4.462  -0.783   3.150  1.00  0.00    +0.000 OA
ATOM     16  H   UNL     1       4.438  -1.058   4.077  1.00  0.00    +0.000 HD
ENDBRANCH   5  15
BRANCH   6  17
ATOM     17  O   UNL     1       6.305  -1.752   1.241  1.00  0.00    +0.000 OA
ATOM     18  H   UNL     1       6.694  -0.932   1.575  1.00  0.00    +0.000 HD
ENDBRANCH   6  17
TORSDOF 6
ENDMDL
MODEL 3
REMARK VINA RESULT:    -5.876      1.213      2.926
REMARK INTER + INTRA:          -6.906
REMARK INTER:                  -6.906
REMARK INTRA:                   0.000
REMARK UNBOUND:                 0.000
REMARK  Name = INS
REMARK  6 active torsions:
REMARK  status: ('A' for Active; 'I' for Inactive)
REMARK    1  A    between atoms: C_1  and  O_7
REMARK    2  A    between atoms: C_2  and  O_8
REMARK    3  A    between atoms: C_3  and  O_9
REMARK    4  A    between atoms: C_4  and  O_10
REMARK    5  A    between atoms: C_5  and  O_11
REMARK    6  A    between atoms: C_6  and  O_12
REMARK                            x       y       z     vdW  Elec       q    Type
REMARK                         _______ _______ _______ _____ _____    ______ ____
ROOT
ATOM      1  C   UNL     1       2.820  -2.528   2.204  1.00  0.00    +0.000 C 
ATOM      2  C   UNL     1       4.247  -2.016   2.412  1.00  0.00    +0.000 C 
ATOM      3  C   UNL     1       5.028  -2.140   1.102  1.00  0.00    +0.000 C 
ATOM      4  C   UNL     1       4.340  -1.308   0.017  1.00  0.00    +0.000 C 
ATOM      5  C   UNL     1       2.913  -1.820  -0.190  1.00  0.00    +0.000 C 
ATOM      6  C   UNL     1       2.132  -1.697   1.121  1.00  0.00    +0.000 C 
ENDROOT
BRANCH   1   7
ATOM      7  O   UNL     1       2.090  -2.413   3.428  1.00  0.00    +0.000 OA
ATOM      8  H   UNL     1       1.362  -3.043   3.512  1.00  0.00    +0.000 HD
ENDBRANCH   1   7
BRANCH   2   9
ATOM      9  O   UNL     1       4.208  -0.646   2.815  1.00  0.00    +0.000 OA
ATOM     10  H   UNL     1       4.078  -0.025   2.085  1.00  0.00    +0.000 HD
ENDBRANCH   2   9
BRANCH   3  11
ATOM     11  O   UNL     1       6.360  -1.662   1.295  1.00  0.00    +0.000 OA
ATOM     12  H   UNL     1       6.614  -0.949   0.693  1.00  0.00    +0.000 HD
ENDBRANCH   3  11
BRANCH   4  13
ATOM     13  O   UNL     1       5.070  -1.423  -1.206  1.00  0.00    +0.000 OA
ATOM     14  H   UNL     1       4.533  -1.285  -1.999  1.00  0.00    +0.000 HD
ENDBRANCH   4  13
BRANCH   5  15
ATOM     15  O   UNL     1       2.270  -1.043  -1.203  1.00  0.00    +0.000 OA
ATOM     16  H   UNL     1       2.810  -0.901  -1.992  1.00  0.00    +0.000 HD
ENDBRANCH   5  15
BRANCH   6  17
ATOM     17  O   UNL     1       0.799  -2.174   0.927  1.00  0.00    +0.000 OA
ATOM     18  H   UNL     1       0.429  -1.967   0.058  1.00  0.00    +0.000 HD
ENDBRANCH   6  17
TORSDOF 6
ENDMDL
MODEL 4
REMARK VINA RESULT:    -5.779      1.139      2.211
REMARK INTER + INTRA:          -6.792
REMARK INTER:                  -6.792
REMARK INTRA:                   0.000
REMARK UNBOUND:                 0.000
REMARK  Name = INS
REMARK  6 active torsions:
REMARK  status: ('A' for Active; 'I' for Inactive)
REMARK    1  A    between atoms: C_1  and  O_7
REMARK    2  A    between atoms: C_2  and  O_8
REMARK    3  A    between atoms: C_3  and  O_9
REMARK    4  A    between atoms: C_4  and  O_10
REMARK    5  A    between atoms: C_5  and  O_11
REMARK    6  A    between atoms: C_6  and  O_12
REMARK                            x       y       z     vdW  Elec       q    Type
REMARK                         _______ _______ _______ _____ _____    ______ ____
ROOT
ATOM      1  C   UNL     1       2.583  -1.732   2.369  1.00  0.00    +0.000 C 
ATOM      2  C   UNL     1       1.999  -2.240   1.049  1.00  0.00    +0.000 C 
ATOM      3  C   UNL     1       2.742  -1.590  -0.120  1.00  0.00    +0.000 C 
ATOM      4  C   UNL     1       4.227  -1.953  -0.046  1.00  0.00    +0.000 C 
ATOM      5  C   UNL     1       4.811  -1.445   1.274  1.00  0.00    +0.000 C 
ATOM      6  C   UNL     1       4.067  -2.094   2.444  1.00  0.00    +0.000 C 
ENDROOT
BRANCH   1   7
ATOM      7  O   UNL     1       1.889  -2.338   3.461  1.00  0.00    +0.000 OA
ATOM      8  H   UNL     1       1.114  -1.842   3.760  1.00  0.00    +0.000 HD
ENDBRANCH   1   7
BRANCH   2   9
ATOM      9  O   UNL     1       2.148  -3.659   0.977  1.00  0.00    +0.000 OA
ATOM     10  H   UNL     1       2.025  -4.111   1.823  1.00  0.00    +0.000 HD
ENDBRANCH   2   9
BRANCH   3  11
ATOM     11  O   UNL     1       2.197  -2.064  -1.353  1.00  0.00    +0.000 OA
ATOM     12  H   UNL     1       2.724  -2.755  -1.776  1.00  0.00    +0.000 HD
ENDBRANCH   3  11
BRANCH   4  13
ATOM     13  O   UNL     1       4.921  -1.346  -1.138  1.00  0.00    +0.000 OA
ATOM     14  H   UNL     1       4.654  -1.678  -2.006  1.00  0.00    +0.000 HD
ENDBRANCH   4  13
BRANCH   5  15
ATOM     15  O   UNL     1       6.197  -1.783   1.344  1.00  0.00    +0.000 OA
ATOM     16  H   UNL     1       6.501  -2.352   0.624  1.00  0.00    +0.000 HD
ENDBRANCH   5  15
BRANCH   6  17
ATOM     17  O   UNL     1       4.612  -1.621   3.677  1.00  0.00    +0.000 OA
ATOM     18  H   UNL     1       4.374  -2.158   4.445  1.00  0.00    +0.000 HD
ENDBRANCH   6  17
TORSDOF 6
ENDMDL
MODEL 5
REMARK VINA RESULT:    -5.612      0.978      3.232
REMARK INTER + INTRA:          -6.596
REMARK INTER:                  -6.596
REMARK INTRA:                   0.000
REMARK UNBOUND:                 0.000
REMARK  Name = INS
REMARK  6 active torsions:
REMARK  status: ('A' for Active; 'I' for Inactive)
REMARK    1  A    between atoms: C_1  and  O_7
REMARK    2  A    between atoms: C_2  and  O_8
REMARK    3  A    between atoms: C_3  and  O_9
REMARK    4  A    between atoms: C_4  and  O_10
REMARK    5  A    between atoms: C_5  and  O_11
REMARK    6  A    between atoms: C_6  and  O_12
REMARK                            x       y       z     vdW  Elec       q    Type
REMARK                         _______ _______ _______ _____ _____    ______ ____
ROOT
ATOM      1  C   UNL     1       5.256  -2.104   1.480  1.00  0.00    +0.000 C 
ATOM      2  C   UNL     1       4.872  -2.065  -0.001  1.00  0.00    +0.000 C 
ATOM      3  C   UNL     1       3.449  -2.596  -0.173  1.00  0.00    +0.000 C 
ATOM      4  C   UNL     1       2.478  -1.726   0.629  1.00  0.00    +0.000 C 
ATOM      5  C   UNL     1       2.862  -1.765   2.110  1.00  0.00    +0.000 C 
ATOM      6  C   UNL     1       4.287  -1.234   2.281  1.00  0.00    +0.000 C 
ENDROOT
BRANCH   1   7
ATOM      7  O   UNL     1       6.587  -1.609   1.640  1.00  0.00    +0.000 OA
ATOM      8  H   UNL     1       6.632  -0.679   1.902  1.00  0.00    +0.000 HD
ENDBRANCH   1   7
BRANCH   2   9
ATOM      9  O   UNL     1       4.938  -0.719  -0.474  1.00  0.00    +0.000 OA
ATOM     10  H   UNL     1       5.386  -0.111   0.130  1.00  0.00    +0.000 HD
ENDBRANCH   2   9
BRANCH   3  11
ATOM     11  O   UNL     1       3.090  -2.560  -1.555  1.00  0.00    +0.000 OA
ATOM     12  H   UNL     1       2.830  -1.683  -1.871  1.00  0.00    +0.000 HD
ENDBRANCH   3  11
BRANCH   4  13
ATOM     13  O   UNL     1       1.148  -2.222   0.469  1.00  0.00    +0.000 OA
ATOM     14  H   UNL     1       0.528  -1.913   1.144  1.00  0.00    +0.000 HD
ENDBRANCH   4  13
BRANCH   5  15
ATOM     15  O   UNL     1       1.957  -0.953   2.859  1.00  0.00    +0.000 OA
ATOM     16  H   UNL     1       1.368  -0.413   2.314  1.00  0.00    +0.000 HD
ENDBRANCH   5  15
BRANCH   6  17
ATOM     17  O   UNL     1       4.646  -1.271   3.664  1.00  0.00    +0.000 OA
ATOM     18  H   UNL     1       5.297  -0.603   3.920  1.00  0.00    +0.000 HD
ENDBRANCH   6  17
TORSDOF 6
ENDMDL
MODEL 6
REMARK VINA RESULT:    -5.463      0.989      3.710
REMARK INTER + INTRA:          -6.422
REMARK INTER:                  -6.422
REMARK INTRA:                   0.000
REMARK UNBOUND:                 0.000
REMARK  Name = INS
REMARK  6 active torsions:
REMARK  status: ('A' for Active; 'I' for Inactive)
REMARK    1  A    between atoms: C_1  and  O_7
REMARK    2  A    between atoms: C_2  and  O_8
REMARK    3  A    between atoms: C_3  and  O_9
REMARK    4  A    between atoms: C_4  and  O_10
REMARK    5  A    between atoms: C_5  and  O_11
REMARK    6  A    between atoms: C_6  and  O_12
REMARK                            x       y       z     vdW  Elec       q    Type
REMARK                         _______ _______ _______ _____ _____    ______ ____
ROOT
ATOM      1  C   UNL     1       4.352  -1.169   2.221  1.00  0.00    +0.000 C 
ATOM      2  C   UNL     1       2.889  -1.617   2.251  1.00  0.00    +0.000 C 
ATOM      3  C   UNL     1       2.287  -1.484   0.851  1.00  0.00    +0.000 C 
ATOM      4  C   UNL     1       3.069  -2.365  -0.126  1.00  0.00    +0.000 C 
ATOM      5  C   UNL     1       4.532  -1.917  -0.156  1.00  0.00    +0.000 C 
ATOM      6  C   UNL     1       5.135  -2.048   1.245  1.00  0.00    +0.000 C 
ENDROOT
BRANCH   1   7
ATOM      7  O   UNL     1       4.915  -1.291   3.529  1.00  0.00    +0.000 OA
ATOM      8  H   UNL     1       5.882  -1.303   3.542  1.00  0.00    +0.000 HD
ENDBRANCH   1   7
BRANCH   2   9
ATOM      9  O   UNL     1       2.817  -2.979   2.674  1.00  0.00    +0.000 OA
ATOM     10  H   UNL     1       2.625  -3.090   3.615  1.00  0.00    +0.000 HD
ENDBRANCH   2   9
BRANCH   3  11
ATOM     11  O   UNL     1       0.921  -1.902   0.879  1.00  0.00    +0.000 OA
ATOM     12  H   UNL     1       0.745  -2.632   1.489  1.00  0.00    +0.000 HD
ENDBRANCH   3  11
BRANCH   4  13
ATOM     13  O   UNL     1       2.507  -2.241  -1.434  1.00  0.00    +0.000 OA
ATOM     14  H   UNL     1       3.127  -1.913  -2.100  1.00  0.00    +0.000 HD
ENDBRANCH   4  13
BRANCH   5  15
ATOM     15  O   UNL     1       5.264  -2.738  -1.069  1.00  0.00    +0.000 OA
ATOM     16  H   UNL     1       5.652  -2.254  -1.810  1.00  0.00    +0.000 HD
ENDBRANCH   5  15
BRANCH   6  17
ATOM     17  O   UNL     1       6.501  -1.631   1.217  1.00  0.00    +0.000 OA
ATOM     18  H   UNL     1       6.918  -1.705   0.347  1.00  0.00    +0.000 HD
ENDBRANCH   6  17
TORSDOF 6
ENDMDL
MODEL 7
REMARK VINA RESULT:    -5.220      1.032      3.008
REMARK INTER + INTRA:          -6.136
REMARK INTER:                  -6.136
REMARK INTRA:                   0.000
REMARK UNBOUND:                 0.000
REMARK  Name = INS
REMARK  6 active torsions:
REMARK  status: ('A' for Active; 'I' for Inactive)
REMARK    1  A    between atoms: C_1  and  O_7
REMARK    2  A    between atoms: C_2  and  O_8
REMARK    3  A    between atoms: C_3  and  O_9
REMARK    4  A    between atoms: C_4  and  O_10
REMARK    5  A    between atoms: C_5  and  O_11
REMARK    6  A    between atoms: C_6  and  O_12
REMARK                            x       y       z     vdW  Elec       q    Type
REMARK                         _______ _______ _______ _____ _____    ______ ____
ROOT
ATOM      1  C   UNL     1       2.272  -2.711   0.886  1.00  0.00    +0.000 C 
ATOM      2  C   UNL     1       2.641  -2.167   2.268  1.00  0.00    +0.000 C 
ATOM      3  C   UNL     1       4.148  -2.308   2.484  1.00  0.00    +0.000 C 
ATOM      4  C   UNL     1       4.895  -1.517   1.408  1.00  0.00    +0.000 C 
ATOM      5  C   UNL     1       4.526  -2.061   0.026  1.00  0.00    +0.000 C 
ATOM      6  C   UNL     1       3.017  -1.921  -0.190  1.00  0.00    +0.000 C 
ENDROOT
BRANCH   1   7
ATOM      7  O   UNL     1       0.863  -2.581   0.683  1.00  0.00    +0.000 OA
ATOM      8  H   UNL     1       0.538  -3.020  -0.115  1.00  0.00    +0.000 HD
ENDBRANCH   1   7
BRANCH   2   9
ATOM      9  O   UNL     1       2.275  -0.789   2.349  1.00  0.00    +0.000 OA
ATOM     10  H   UNL     1       1.328  -0.625   2.240  1.00  0.00    +0.000 HD
ENDBRANCH   2   9
BRANCH   3  11
ATOM     11  O   UNL     1       4.493  -1.800   3.774  1.00  0.00    +0.000 OA
ATOM     12  H   UNL     1       5.348  -1.348   3.803  1.00  0.00    +0.000 HD
ENDBRANCH   3  11
BRANCH   4  13
ATOM     13  O   UNL     1       6.304  -1.648   1.611  1.00  0.00    +0.000 OA
ATOM     14  H   UNL     1       6.828  -0.952   1.192  1.00  0.00    +0.000 HD
ENDBRANCH   4  13
BRANCH   5  15
ATOM     15  O   UNL     1       5.223  -1.323  -0.979  1.00  0.00    +0.000 OA
ATOM     16  H   UNL     1       6.185  -1.403  -0.931  1.00  0.00    +0.000 HD
ENDBRANCH   5  15
BRANCH   6  17
ATOM     17  O   UNL     1       2.672  -2.429  -1.480  1.00  0.00    +0.000 OA
ATOM     18  H   UNL     1       2.995  -1.889  -2.215  1.00  0.00    +0.000 HD
ENDBRANCH   6  17
TORSDOF 6
ENDMDL
MODEL 8
REMARK VINA RESULT:    -4.882      1.290      3.721
REMARK INTER + INTRA:          -5.739
REMARK INTER:                  -5.739
REMARK INTRA:                   0.000
REMARK UNBOUND:                 0.000
REMARK  Name = INS
REMARK  6 active torsions:
REMARK  status: ('A' for Active; 'I' for Inactive)
REMARK    1  A    between atoms: C_1  and  O_7
REMARK    2  A    between atoms: C_2  and  O_8
REMARK    3  A    between atoms: C_3  and  O_9
REMARK    4  A    between atoms: C_4  and  O_10
REMARK    5  A    between atoms: C_5  and  O_11
REMARK    6  A    between atoms: C_6  and  O_12
REMARK                            x       y       z     vdW  Elec       q    Type
REMARK                         _______ _______ _______ _____ _____    ______ ____
ROOT
ATOM      1  C   UNL     1       4.232  -1.073  -0.066  1.00  0.00    +0.000 C 
ATOM      2  C   UNL     1       5.002  -1.009   1.254  1.00  0.00    +0.000 C 
ATOM      3  C   UNL     1       4.033  -1.215   2.420  1.00  0.00    +0.000 C 
ATOM      4  C   UNL     1       3.360  -2.583   2.288  1.00  0.00    +0.000 C 
ATOM      5  C   UNL     1       2.589  -2.647   0.967  1.00  0.00    +0.000 C 
ATOM      6  C   UNL     1       3.559  -2.440  -0.199  1.00  0.00    +0.000 C 
ENDROOT
BRANCH   1   7
ATOM      7  O   UNL     1       5.136  -0.879  -1.155  1.00  0.00    +0.000 OA
ATOM      8  H   UNL     1       5.596  -1.684  -1.434  1.00  0.00    +0.000 HD
ENDBRANCH   1   7
BRANCH   2   9
ATOM      9  O   UNL     1       5.997  -2.034   1.275  1.00  0.00    +0.000 OA
ATOM     10  H   UNL     1       5.884  -2.677   1.988  1.00  0.00    +0.000 HD
ENDBRANCH   2   9
BRANCH   3  11
ATOM     11  O   UNL     1       4.752  -1.155   3.653  1.00  0.00    +0.000 OA
ATOM     12  H   UNL     1       5.704  -1.303   3.561  1.00  0.00    +0.000 HD
ENDBRANCH   3  11
BRANCH   4  13
ATOM     13  O   UNL     1       2.455  -2.776   3.377  1.00  0.00    +0.000 OA
ATOM     14  H   UNL     1       1.778  -3.447   3.212  1.00  0.00    +0.000 HD
ENDBRANCH   4  13
BRANCH   5  15
ATOM     15  O   UNL     1       1.961  -3.924   0.843  1.00  0.00    +0.000 OA
ATOM     16  H   UNL     1       1.157  -4.021   1.373  1.00  0.00    +0.000 HD
ENDBRANCH   5  15
BRANCH   6  17
ATOM     17  O   UNL     1       2.840  -2.500  -1.432  1.00  0.00    +0.000 OA
ATOM     18  H   UNL     1       2.046  -3.052  -1.399  1.00  0.00    +0.000 HD
ENDBRANCH   6  17
TORSDOF 6
ENDMDL
MODEL 9
REMARK VINA RESULT:    -4.504     12.204     13.952
REMARK INTER + INTRA:          -5.294
REMARK INTER:                  -5.294
REMARK INTRA:                   0.000
REMARK UNBOUND:                 0.000
REMARK  Name = INS
REMARK  6 active torsions:
REMARK  status: ('A' for Active; 'I' for Inactive)
REMARK    1  A    between atoms: C_1  and  O_7
REMARK    2  A    between atoms: C_2  and  O_8
REMARK    3  A    between atoms: C_3  and  O_9
REMARK    4  A    between atoms: C_4  and  O_10
REMARK    5  A    between atoms: C_5  and  O_11
REMARK    6  A    between atoms: C_6  and  O_12
REMARK                            x       y       z     vdW  Elec       q    Type
REMARK                         _______ _______ _______ _____ _____    ______ ____
ROOT
ATOM      1  C   UNL     1      -9.148  -8.527   2.387  1.00  0.00    +0.000 C 
ATOM      2  C   UNL     1      -9.699  -9.474   1.319  1.00  0.00    +0.000 C 
ATOM      3  C   UNL     1      -9.230  -9.011  -0.062  1.00  0.00    +0.000 C 
ATOM      4  C   UNL     1      -7.701  -9.021  -0.112  1.00  0.00    +0.000 C 
ATOM      5  C   UNL     1      -7.150  -8.074   0.956  1.00  0.00    +0.000 C 
ATOM      6  C   UNL     1      -7.619  -8.536   2.338  1.00  0.00    +0.000 C 
ENDROOT
BRANCH   1   7
ATOM      7  O   UNL     1      -9.586  -8.957   3.677  1.00  0.00    +0.000 OA
ATOM      8  H   UNL     1     -10.053  -9.804   3.672  1.00  0.00    +0.000 HD
ENDBRANCH   1   7
BRANCH   2   9
ATOM      9  O   UNL     1      -9.222 -10.797   1.564  1.00  0.00    +0.000 OA
ATOM     10  H   UNL     1      -9.765 -11.491   1.165  1.00  0.00    +0.000 HD
ENDBRANCH   2   9
BRANCH   3  11
ATOM     11  O   UNL     1      -9.745  -9.895  -1.060  1.00  0.00    +0.000 OA
ATOM     12  H   UNL     1      -9.088 -10.508  -1.419  1.00  0.00    +0.000 HD
ENDBRANCH   3  11
BRANCH   4  13
ATOM     13  O   UNL     1      -7.263  -8.589  -1.402  1.00  0.00    +0.000 OA
ATOM     14  H   UNL     1      -7.193  -7.629  -1.493  1.00  0.00    +0.000 HD
ENDBRANCH   4  13
BRANCH   5  15
ATOM     15  O   UNL     1      -5.722  -8.083   0.911  1.00  0.00    +0.000 OA
ATOM     16  H   UNL     1      -5.301  -8.191   1.774  1.00  0.00    +0.000 HD
ENDBRANCH   5  15
BRANCH   6  17
ATOM     17  O   UNL     1      -7.105  -7.652   3.336  1.00  0.00    +0.000 OA
ATOM     18  H   UNL     1      -7.097  -8.027   4.227  1.00  0.00    +0.000 HD
ENDBRANCH   6  17
TORSDOF 6
ENDMDL
