MODEL 1
REMARK VINA RESULT:    -6.104      0.000      0.000
REMARK INTER + INTRA:          -6.104
REMARK INTER:                  -6.104
REMARK INTRA:                   0.000
REMARK UNBOUND:                 0.000
REMARK  Name = HPA
REMARK  0 active torsions:
REMARK  status: ('A' for Active; 'I' for Inactive)
REMARK                            x       y       z     vdW  Elec       q    Type
REMARK                         _______ _______ _______ _____ _____    ______ ____
ROOT
ATOM      1  N   UNL     1       2.454  -1.331   2.664  1.00  0.00    +0.000 N 
ATOM      2  C   UNL     1       1.503  -1.768   1.799  1.00  0.00    +0.000 A 
ATOM      3  N   UNL     1       1.802  -2.298   0.649  1.00  0.00    +0.000 NA
ATOM      4  C   UNL     1       3.085  -2.439   0.259  1.00  0.00    +0.000 A 
ATOM      5  C   UNL     1       4.106  -2.003   1.106  1.00  0.00    +0.000 A 
ATOM      6  C   UNL     1       3.764  -1.437   2.348  1.00  0.00    +0.000 A 
ATOM      7  O   UNL     1       4.626  -1.049   3.118  1.00  0.00    +0.000 OA
ATOM      8  N   UNL     1       5.290  -2.275   0.455  1.00  0.00    +0.000 N 
ATOM      9  C   UNL     1       4.971  -2.841  -0.729  1.00  0.00    +0.000 A 
ATOM     10  N   UNL     1       3.674  -2.936  -0.841  1.00  0.00    +0.000 NA
ATOM     11  H   UNL     1       2.192  -0.942   3.513  1.00  0.00    +0.000 HD
ATOM     12  H   UNL     1       6.184  -2.092   0.784  1.00  0.00    +0.000 HD
ENDROOT
TORSDOF 0
ENDMDL
MODEL 2
REMARK VINA RESULT:    -5.736      0.829      2.813
REMARK INTER + INTRA:          -5.736
REMARK INTER:                  -5.736
REMARK INTRA:                   0.000
REMARK UNBOUND:                 0.000
REMARK  Name = HPA
REMARK  0 active torsions:
REMARK  status: ('A' for Active; 'I' for Inactive)
REMARK                            x       y       z     vdW  Elec       q    Type
REMARK                         _______ _______ _______ _____ _____    ______ ____
ROOT
ATOM      1  N   UNL     1       5.682  -1.723   1.467  1.00  0.00    +0.000 N 
ATOM      2  C   UNL     1       5.434  -2.102   0.187  1.00  0.00    +0.000 A 
ATOM      3  N   UNL     1       4.226  -2.275  -0.265  1.00  0.00    +0.000 NA
ATOM      4  C   UNL     1       3.152  -2.083   0.528  1.00  0.00    +0.000 A 
ATOM      5  C   UNL     1       3.346  -1.698   1.856  1.00  0.00    +0.000 A 
ATOM      6  C   UNL     1       4.659  -1.511   2.325  1.00  0.00    +0.000 A 
ATOM      7  O   UNL     1       4.871  -1.169   3.477  1.00  0.00    +0.000 OA
ATOM      8  N   UNL     1       2.090  -1.576   2.411  1.00  0.00    +0.000 N 
ATOM      9  C   UNL     1       1.198  -1.887   1.446  1.00  0.00    +0.000 A 
ATOM     10  N   UNL     1       1.826  -2.184   0.340  1.00  0.00    +0.000 NA
ATOM     11  H   UNL     1       6.597  -1.604   1.766  1.00  0.00    +0.000 HD
ATOM     12  H   UNL     1       1.885  -1.320   3.323  1.00  0.00    +0.000 HD
ENDROOT
TORSDOF 0
ENDMDL
MODEL 3
REMARK VINA RESULT:    -5.442      1.882      2.541
REMARK INTER + INTRA:          -5.442
REMARK INTER:                  -5.442
REMARK INTRA:                   0.000
REMARK UNBOUND:                 0.000
REMARK  Name = HPA
REMARK  0 active torsions:
REMARK  status: ('A' for Active; 'I' for Inactive)
REMARK                            x       y       z     vdW  Elec       q    Type
REMARK                         _______ _______ _______ _____ _____    ______ ____
ROOT
ATOM      1  N   UNL     1       1.529  -1.987   1.050  1.00  0.00    +0.000 N 
ATOM      2  C   UNL     1       1.861  -1.920   2.365  1.00  0.00    +0.000 A 
ATOM      3  N   UNL     1       3.097  -1.838   2.765  1.00  0.00    +0.000 NA
ATOM      4  C   UNL     1       4.115  -1.816   1.882  1.00  0.00    +0.000 A 
ATOM      5  C   UNL     1       3.834  -1.887   0.516  1.00  0.00    +0.000 A 
ATOM      6  C   UNL     1       2.491  -1.970   0.102  1.00  0.00    +0.000 A 
ATOM      7  O   UNL     1       2.204  -2.028  -1.082  1.00  0.00    +0.000 OA
ATOM      8  N   UNL     1       5.049  -1.840  -0.132  1.00  0.00    +0.000 N 
ATOM      9  C   UNL     1       6.003  -1.753   0.820  1.00  0.00    +0.000 A 
ATOM     10  N   UNL     1       5.451  -1.739   2.003  1.00  0.00    +0.000 NA
ATOM     11  H   UNL     1       0.596  -2.047   0.791  1.00  0.00    +0.000 HD
ATOM     12  H   UNL     1       5.193  -1.868  -1.090  1.00  0.00    +0.000 HD
ENDROOT
TORSDOF 0
ENDMDL
MODEL 4
REMARK VINA RESULT:    -5.420      2.008      3.667
REMARK INTER + INTRA:          -5.420
REMARK INTER:                  -5.420
REMARK INTRA:                   0.000
REMARK UNBOUND:                 0.000
REMARK  Name = HPA
REMARK  0 active torsions:
REMARK  status: ('A' for Active; 'I' for Inactive)
REMARK                            x       y       z     vdW  Elec       q    Type
REMARK                         _______ _______ _______ _____ _____    ______ ____
ROOT
ATOM      1  N   UNL     1       4.447  -1.305  -0.709  1.00  0.00    +0.000 N 
ATOM      2  C   UNL     1       5.483  -1.352   0.167  1.00  0.00    +0.000 A 
ATOM      3  N   UNL     1       5.320  -1.662   1.420  1.00  0.00    +0.000 NA
ATOM      4  C   UNL     1       4.099  -1.954   1.912  1.00  0.00    +0.000 A 
ATOM      5  C   UNL     1       2.994  -1.918   1.058  1.00  0.00    +0.000 A 
ATOM      6  C   UNL     1       3.191  -1.585  -0.295  1.00  0.00    +0.000 A 
ATOM      7  O   UNL     1       2.253  -1.548  -1.074  1.00  0.00    +0.000 OA
ATOM      8  N   UNL     1       1.902  -2.259   1.825  1.00  0.00    +0.000 N 
ATOM      9  C   UNL     1       2.350  -2.479   3.079  1.00  0.00    +0.000 A 
ATOM     10  N   UNL     1       3.642  -2.299   3.127  1.00  0.00    +0.000 NA
ATOM     11  H   UNL     1       4.609  -1.070  -1.636  1.00  0.00    +0.000 HD
ATOM     12  H   UNL     1       0.983  -2.326   1.523  1.00  0.00    +0.000 HD
ENDROOT
TORSDOF 0
ENDMDL
MODEL 5
REMARK VINA RESULT:    -5.383      1.840      3.015
REMARK INTER + INTRA:          -5.383
REMARK INTER:                  -5.383
REMARK INTRA:                   0.000
REMARK UNBOUND:                 0.000
REMARK  Name = HPA
REMARK  0 active torsions:
REMARK  status: ('A' for Active; 'I' for Inactive)
REMARK                            x       y       z     vdW  Elec       q    Type
REMARK                         _______ _______ _______ _____ _____    ______ ____
ROOT
ATOM      1  N   UNL     1       3.369  -2.168  -1.009  1.00  0.00    +0.000 N 
ATOM      2  C   UNL     1       2.299  -1.558  -0.439  1.00  0.00    +0.000 A 
ATOM      3  N   UNL     1       2.320  -1.124   0.788  1.00  0.00    +0.000 NA
ATOM      4  C   UNL     1       3.418  -1.263   1.557  1.00  0.00    +0.000 A 
ATOM      5  C   UNL     1       4.548  -1.887   1.025  1.00  0.00    +0.000 A 
ATOM      6  C   UNL     1       4.508  -2.346  -0.305  1.00  0.00    +0.000 A 
ATOM      7  O   UNL     1       5.476  -2.892  -0.808  1.00  0.00    +0.000 OA
ATOM      8  N   UNL     1       5.498  -1.882   2.023  1.00  0.00    +0.000 N 
ATOM      9  C   UNL     1       4.942  -1.284   3.098  1.00  0.00    +0.000 A 
ATOM     10  N   UNL     1       3.719  -0.921   2.821  1.00  0.00    +0.000 NA
ATOM     11  H   UNL     1       3.315  -2.478  -1.927  1.00  0.00    +0.000 HD
ATOM     12  H   UNL     1       6.397  -2.243   1.966  1.00  0.00    +0.000 HD
ENDROOT
TORSDOF 0
ENDMDL
MODEL 6
REMARK VINA RESULT:    -5.026      1.704      2.507
REMARK INTER + INTRA:          -5.026
REMARK INTER:                  -5.026
REMARK INTRA:                   0.000
REMARK UNBOUND:                 0.000
REMARK  Name = HPA
REMARK  0 active torsions:
REMARK  status: ('A' for Active; 'I' for Inactive)
REMARK                            x       y       z     vdW  Elec       q    Type
REMARK                         _______ _______ _______ _____ _____    ______ ____
ROOT
ATOM      1  N   UNL     1       5.441  -1.673   2.450  1.00  0.00    +0.000 N 
ATOM      2  C   UNL     1       4.284  -1.689   3.159  1.00  0.00    +0.000 A 
ATOM      3  N   UNL     1       3.118  -1.606   2.586  1.00  0.00    +0.000 NA
ATOM      4  C   UNL     1       3.005  -1.500   1.247  1.00  0.00    +0.000 A 
ATOM      5  C   UNL     1       4.163  -1.474   0.466  1.00  0.00    +0.000 A 
ATOM      6  C   UNL     1       5.414  -1.570   1.102  1.00  0.00    +0.000 A 
ATOM      7  O   UNL     1       6.448  -1.556   0.455  1.00  0.00    +0.000 OA
ATOM      8  N   UNL     1       3.744  -1.365  -0.842  1.00  0.00    +0.000 N 
ATOM      9  C   UNL     1       2.395  -1.321  -0.825  1.00  0.00    +0.000 A 
ATOM     10  N   UNL     1       1.963  -1.400   0.405  1.00  0.00    +0.000 NA
ATOM     11  H   UNL     1       6.291  -1.737   2.912  1.00  0.00    +0.000 HD
ATOM     12  H   UNL     1       4.311  -1.324  -1.628  1.00  0.00    +0.000 HD
ENDROOT
TORSDOF 0
ENDMDL
MODEL 7
REMARK VINA RESULT:    -4.955      1.705      2.638
REMARK INTER + INTRA:          -4.955
REMARK INTER:                  -4.955
REMARK INTRA:                   0.000
REMARK UNBOUND:                 0.000
REMARK  Name = HPA
REMARK  0 active torsions:
REMARK  status: ('A' for Active; 'I' for Inactive)
REMARK                            x       y       z     vdW  Elec       q    Type
REMARK                         _______ _______ _______ _____ _____    ______ ____
ROOT
ATOM      1  N   UNL     1       4.087  -2.023   3.317  1.00  0.00    +0.000 N 
ATOM      2  C   UNL     1       5.202  -1.639   2.644  1.00  0.00    +0.000 A 
ATOM      3  N   UNL     1       5.178  -1.331   1.380  1.00  0.00    +0.000 NA
ATOM      4  C   UNL     1       4.030  -1.378   0.673  1.00  0.00    +0.000 A 
ATOM      5  C   UNL     1       2.853  -1.770   1.312  1.00  0.00    +0.000 A 
ATOM      6  C   UNL     1       2.897  -2.096   2.680  1.00  0.00    +0.000 A 
ATOM      7  O   UNL     1       1.889  -2.438   3.276  1.00  0.00    +0.000 OA
ATOM      8  N   UNL     1       1.860  -1.721   0.357  1.00  0.00    +0.000 N 
ATOM      9  C   UNL     1       2.438  -1.323  -0.796  1.00  0.00    +0.000 A 
ATOM     10  N   UNL     1       3.715  -1.122  -0.607  1.00  0.00    +0.000 NA
ATOM     11  H   UNL     1       4.145  -2.245   4.259  1.00  0.00    +0.000 HD
ATOM     12  H   UNL     1       0.923  -1.935   0.487  1.00  0.00    +0.000 HD
ENDROOT
TORSDOF 0
ENDMDL
MODEL 8
REMARK VINA RESULT:    -4.858     12.243     13.545
REMARK INTER + INTRA:          -4.858
REMARK INTER:                  -4.858
REMARK INTRA:                   0.000
REMARK UNBOUND:                 0.000
REMARK  Name = HPA
REMARK  0 active torsions:
REMARK  status: ('A' for Active; 'I' for Inactive)
REMARK                            x       y       z     vdW  Elec       q    Type
REMARK                         _______ _______ _______ _____ _____    ______ ____
ROOT
ATOM      1  N   UNL     1      -8.692 -10.137  -0.990  1.00  0.00    +0.000 N 
ATOM      2  C   UNL     1      -9.519 -10.131   0.086  1.00  0.00    +0.000 A 
ATOM      3  N   UNL     1      -9.230  -9.488   1.180  1.00  0.00    +0.000 NA
ATOM      4  C   UNL     1      -8.082  -8.790   1.296  1.00  0.00    +0.000 A 
ATOM      5  C   UNL     1      -7.190  -8.764   0.222  1.00  0.00    +0.000 A 
ATOM      6  C   UNL     1      -7.522  -9.461  -0.955  1.00  0.00    +0.000 A 
ATOM      7  O   UNL     1      -6.771  -9.459  -1.916  1.00  0.00    +0.000 OA
ATOM      8  N   UNL     1      -6.127  -7.983   0.622  1.00  0.00    +0.000 N 
ATOM      9  C   UNL     1      -6.386  -7.576   1.883  1.00  0.00    +0.000 A 
ATOM     10  N   UNL     1      -7.537  -8.052   2.276  1.00  0.00    +0.000 NA
ATOM     11  H   UNL     1      -8.942 -10.628  -1.789  1.00  0.00    +0.000 HD
ATOM     12  H   UNL     1      -5.340  -7.769   0.098  1.00  0.00    +0.000 HD
ENDROOT
TORSDOF 0
ENDMDL
MODEL 9
REMARK VINA RESULT:    -4.562     12.530     13.902
REMARK INTER + INTRA:          -4.562
REMARK INTER:                  -4.562
REMARK INTRA:                   0.000
REMARK UNBOUND:                 0.000
REMARK  Name = HPA
REMARK  0 active torsions:
REMARK  status: ('A' for Active; 'I' for Inactive)
REMARK                            x       y       z     vdW  Elec       q    Type
REMARK                         _______ _______ _______ _____ _____    ______ ____
ROOT
ATOM      1  N   UNL     1      -6.352  -8.042   0.288  1.00  0.00    +0.000 N 
ATOM      2  C   UNL     1      -6.677  -7.674   1.553  1.00  0.00    +0.000 A 
ATOM      3  N   UNL     1      -7.639  -8.246   2.218  1.00  0.00    +0.000 NA
ATOM      4  C   UNL     1      -8.366  -9.242   1.672  1.00  0.00    +0.000 A 
ATOM      5  C   UNL     1      -8.081  -9.660   0.370  1.00  0.00    +0.000 A 
ATOM      6  C   UNL     1      -7.033  -9.033  -0.330  1.00  0.00    +0.000 A 
ATOM      7  O   UNL     1      -6.749  -9.372  -1.467  1.00  0.00    +0.000 OA
ATOM      8  N   UNL     1      -8.967 -10.676   0.087  1.00  0.00    +0.000 N 
ATOM      9  C   UNL     1      -9.745 -10.840   1.178  1.00  0.00    +0.000 A 
ATOM     10  N   UNL     1      -9.389  -9.995   2.109  1.00  0.00    +0.000 NA
ATOM     11  H   UNL     1      -5.628  -7.592  -0.175  1.00  0.00    +0.000 HD
ATOM     12  H   UNL     1      -9.024 -11.177  -0.741  1.00  0.00    +0.000 HD
ENDROOT
TORSDOF 0
ENDMDL
