MODEL 1
REMARK VINA RESULT:    -6.093      0.000      0.000
REMARK INTER + INTRA:          -7.161
REMARK INTER:                  -7.161
REMARK INTRA:                   0.000
REMARK UNBOUND:                 0.000
REMARK  Name = INS
REMARK  6 active torsions:
REMARK  status: ('A' for Active; 'I' for Inactive)
REMARK    1  A    between atoms: C_1  and  O_7
REMARK    2  A    between atoms: C_2  and  O_8
REMARK    3  A    between atoms: C_3  and  O_9
REMARK    4  A    between atoms: C_4  and  O_10
REMARK    5  A    between atoms: C_5  and  O_11
REMARK    6  A    between atoms: C_6  and  O_12
REMARK                            x       y       z     vdW  Elec       q    Type
REMARK                         _______ _______ _______ _____ _____    ______ ____
ROOT
ATOM      1  C   UNL     1       2.155  -1.721   0.558  1.00  0.00    +0.000 C 
ATOM      2  C   UNL     1       3.024  -2.609  -0.336  1.00  0.00    +0.000 C 
ATOM      3  C   UNL     1       4.460  -2.084  -0.332  1.00  0.00    +0.000 C 
ATOM      4  C   UNL     1       5.008  -2.105   1.097  1.00  0.00    +0.000 C 
ATOM      5  C   UNL     1       4.139  -1.218   1.990  1.00  0.00    +0.000 C 
ATOM      6  C   UNL     1       2.701  -1.743   1.986  1.00  0.00    +0.000 C 
ENDROOT
BRANCH   1   7
ATOM      7  O   UNL     1       0.812  -2.211   0.554  1.00  0.00    +0.000 OA
ATOM      8  H   UNL     1       0.480  -2.457   1.428  1.00  0.00    +0.000 HD
ENDBRANCH   1   7
BRANCH   2   9
ATOM      9  O   UNL     1       3.006  -3.948   0.161  1.00  0.00    +0.000 OA
ATOM     10  H   UNL     1       3.254  -4.614  -0.493  1.00  0.00    +0.000 HD
ENDBRANCH   2   9
BRANCH   3  11
ATOM     11  O   UNL     1       5.272  -2.912  -1.166  1.00  0.00    +0.000 OA
ATOM     12  H   UNL     1       6.214  -2.887  -0.947  1.00  0.00    +0.000 HD
ENDBRANCH   3  11
BRANCH   4  13
ATOM     13  O   UNL     1       6.351  -1.615   1.100  1.00  0.00    +0.000 OA
ATOM     14  H   UNL     1       6.503  -0.890   1.722  1.00  0.00    +0.000 HD
ENDBRANCH   4  13
BRANCH   5  15
ATOM     15  O   UNL     1       4.650  -1.238   3.324  1.00  0.00    +0.000 OA
ATOM     16  H   UNL     1       5.505  -0.798   3.425  1.00  0.00    +0.000 HD
ENDBRANCH   5  15
BRANCH   6  17
ATOM     17  O   UNL     1       1.889  -0.914   2.820  1.00  0.00    +0.000 OA
ATOM     18  H   UNL     1       2.321  -0.097   3.103  1.00  0.00    +0.000 HD
ENDBRANCH   6  17
TORSDOF 6
ENDMDL
MODEL 2
REMARK VINA RESULT:    -6.017      0.952      3.277
REMARK INTER + INTRA:          -7.073
REMARK INTER:                  -7.073
REMARK INTRA:                   0.000
REMARK UNBOUND:                 0.000
REMARK  Name = INS
REMARK  6 active torsions:
REMARK  status: ('A' for Active; 'I' for Inactive)
REMARK    1  A    between atoms: C_1  and  O_7
REMARK    2  A    between atoms: C_2  and  O_8
REMARK    3  A    between atoms: C_3  and  O_9
REMARK    4  A    between atoms: C_4  and  O_10
REMARK    5  A    between atoms: C_5  and  O_11
REMARK    6  A    between atoms: C_6  and  O_12
REMARK                            x       y       z     vdW  Elec       q    Type
REMARK                         _______ _______ _______ _____ _____    ______ ____
ROOT
ATOM      1  C   UNL     1       4.525  -2.765  -0.038  1.00  0.00    +0.000 C 
ATOM      2  C   UNL     1       3.038  -2.652  -0.378  1.00  0.00    +0.000 C 
ATOM      3  C   UNL     1       2.211  -2.781   0.903  1.00  0.00    +0.000 C 
ATOM      4  C   UNL     1       2.599  -1.665   1.875  1.00  0.00    +0.000 C 
ATOM      5  C   UNL     1       4.086  -1.778   2.215  1.00  0.00    +0.000 C 
ATOM      6  C   UNL     1       4.913  -1.650   0.934  1.00  0.00    +0.000 C 
ENDROOT
BRANCH   1   7
ATOM      7  O   UNL     1       5.298  -2.645  -1.234  1.00  0.00    +0.000 OA
ATOM      8  H   UNL     1       5.810  -1.827  -1.292  1.00  0.00    +0.000 HD
ENDBRANCH   1   7
BRANCH   2   9
ATOM      9  O   UNL     1       2.783  -1.383  -0.983  1.00  0.00    +0.000 OA
ATOM     10  H   UNL     1       3.522  -1.040  -1.504  1.00  0.00    +0.000 HD
ENDBRANCH   2   9
BRANCH   3  11
ATOM     11  O   UNL     1       0.822  -2.676   0.586  1.00  0.00    +0.000 OA
ATOM     12  H   UNL     1       0.277  -2.345   1.313  1.00  0.00    +0.000 HD
ENDBRANCH   3  11
BRANCH   4  13
ATOM     13  O   UNL     1       1.826  -1.786   3.072  1.00  0.00    +0.000 OA
ATOM     14  H   UNL     1       1.310  -2.602   3.126  1.00  0.00    +0.000 HD
ENDBRANCH   4  13
BRANCH   5  15
ATOM     15  O   UNL     1       4.449  -0.736   3.123  1.00  0.00    +0.000 OA
ATOM     16  H   UNL     1       4.900  -1.048   3.920  1.00  0.00    +0.000 HD
ENDBRANCH   5  15
BRANCH   6  17
ATOM     17  O   UNL     1       6.302  -1.756   1.251  1.00  0.00    +0.000 OA
ATOM     18  H   UNL     1       6.882  -1.270   0.648  1.00  0.00    +0.000 HD
ENDBRANCH   6  17
TORSDOF 6
ENDMDL
MODEL 3
REMARK VINA RESULT:    -5.944      1.212      2.950
REMARK INTER + INTRA:          -6.987
REMARK INTER:                  -6.987
REMARK INTRA:                   0.000
REMARK UNBOUND:                 0.000
REMARK  Name = INS
REMARK  6 active torsions:
REMARK  status: ('A' for Active; 'I' for Inactive)
REMARK    1  A    between atoms: C_1  and  O_7
REMARK    2  A    between atoms: C_2  and  O_8
REMARK    3  A    between atoms: C_3  and  O_9
REMARK    4  A    between atoms: C_4  and  O_10
REMARK    5  A    between atoms: C_5  and  O_11
REMARK    6  A    between atoms: C_6  and  O_12
REMARK                            x       y       z     vdW  Elec       q    Type
REMARK                         _______ _______ _______ _____ _____    ______ ____
ROOT
ATOM      1  C   UNL     1       2.788  -2.562   2.254  1.00  0.00    +0.000 C 
ATOM      2  C   UNL     1       4.203  -2.007   2.430  1.00  0.00    +0.000 C 
ATOM      3  C   UNL     1       4.974  -2.152   1.117  1.00  0.00    +0.000 C 
ATOM      4  C   UNL     1       4.254  -1.372   0.014  1.00  0.00    +0.000 C 
ATOM      5  C   UNL     1       2.839  -1.927  -0.162  1.00  0.00    +0.000 C 
ATOM      6  C   UNL     1       2.068  -1.784   1.152  1.00  0.00    +0.000 C 
ENDROOT
BRANCH   1   7
ATOM      7  O   UNL     1       2.068  -2.428   3.481  1.00  0.00    +0.000 OA
ATOM      8  H   UNL     1       1.779  -1.525   3.672  1.00  0.00    +0.000 HD
ENDBRANCH   1   7
BRANCH   2   9
ATOM      9  O   UNL     1       4.132  -0.627   2.791  1.00  0.00    +0.000 OA
ATOM     10  H   UNL     1       4.939  -0.284   3.198  1.00  0.00    +0.000 HD
ENDBRANCH   2   9
BRANCH   3  11
ATOM     11  O   UNL     1       6.295  -1.634   1.281  1.00  0.00    +0.000 OA
ATOM     12  H   UNL     1       6.535  -0.957   0.633  1.00  0.00    +0.000 HD
ENDBRANCH   3  11
BRANCH   4  13
ATOM     13  O   UNL     1       4.974  -1.507  -1.213  1.00  0.00    +0.000 OA
ATOM     14  H   UNL     1       4.895  -0.744  -1.802  1.00  0.00    +0.000 HD
ENDBRANCH   4  13
BRANCH   5  15
ATOM     15  O   UNL     1       2.166  -1.200  -1.192  1.00  0.00    +0.000 OA
ATOM     16  H   UNL     1       2.658  -0.435  -1.519  1.00  0.00    +0.000 HD
ENDBRANCH   5  15
BRANCH   6  17
ATOM     17  O   UNL     1       0.746  -2.301   0.988  1.00  0.00    +0.000 OA
ATOM     18  H   UNL     1       0.048  -1.638   1.084  1.00  0.00    +0.000 HD
ENDBRANCH   6  17
TORSDOF 6
ENDMDL
MODEL 4
REMARK VINA RESULT:    -5.786      1.155      2.197
REMARK INTER + INTRA:          -6.800
REMARK INTER:                  -6.800
REMARK INTRA:                   0.000
REMARK UNBOUND:                 0.000
REMARK  Name = INS
REMARK  6 active torsions:
REMARK  status: ('A' for Active; 'I' for Inactive)
REMARK    1  A    between atoms: C_1  and  O_7
REMARK    2  A    between atoms: C_2  and  O_8
REMARK    3  A    between atoms: C_3  and  O_9
REMARK    4  A    between atoms: C_4  and  O_10
REMARK    5  A    between atoms: C_5  and  O_11
REMARK    6  A    between atoms: C_6  and  O_12
REMARK                            x       y       z     vdW  Elec       q    Type
REMARK                         _______ _______ _______ _____ _____    ______ ____
ROOT
ATOM      1  C   UNL     1       2.568  -1.732   2.393  1.00  0.00    +0.000 C 
ATOM      2  C   UNL     1       2.000  -2.229   1.062  1.00  0.00    +0.000 C 
ATOM      3  C   UNL     1       2.751  -1.564  -0.093  1.00  0.00    +0.000 C 
ATOM      4  C   UNL     1       4.237  -1.920  -0.008  1.00  0.00    +0.000 C 
ATOM      5  C   UNL     1       4.805  -1.424   1.324  1.00  0.00    +0.000 C 
ATOM      6  C   UNL     1       4.053  -2.088   2.479  1.00  0.00    +0.000 C 
ENDROOT
BRANCH   1   7
ATOM      7  O   UNL     1       1.866  -2.353   3.472  1.00  0.00    +0.000 OA
ATOM      8  H   UNL     1       1.586  -1.739   4.164  1.00  0.00    +0.000 HD
ENDBRANCH   1   7
BRANCH   2   9
ATOM      9  O   UNL     1       2.156  -3.646   0.977  1.00  0.00    +0.000 OA
ATOM     10  H   UNL     1       1.327  -4.138   1.049  1.00  0.00    +0.000 HD
ENDBRANCH   2   9
BRANCH   3  11
ATOM     11  O   UNL     1       2.221  -2.027  -1.336  1.00  0.00    +0.000 OA
ATOM     12  H   UNL     1       2.796  -2.651  -1.800  1.00  0.00    +0.000 HD
ENDBRANCH   3  11
BRANCH   4  13
ATOM     13  O   UNL     1       4.939  -1.299  -1.086  1.00  0.00    +0.000 OA
ATOM     14  H   UNL     1       5.760  -0.861  -0.821  1.00  0.00    +0.000 HD
ENDBRANCH   4  13
BRANCH   5  15
ATOM     15  O   UNL     1       6.193  -1.756   1.404  1.00  0.00    +0.000 OA
ATOM     16  H   UNL     1       6.786  -1.012   1.236  1.00  0.00    +0.000 HD
ENDBRANCH   5  15
BRANCH   6  17
ATOM     17  O   UNL     1       4.583  -1.625   3.722  1.00  0.00    +0.000 OA
ATOM     18  H   UNL     1       5.534  -1.450   3.704  1.00  0.00    +0.000 HD
ENDBRANCH   6  17
TORSDOF 6
ENDMDL
MODEL 5
REMARK VINA RESULT:    -5.603      0.987      3.235
REMARK INTER + INTRA:          -6.586
REMARK INTER:                  -6.586
REMARK INTRA:                   0.000
REMARK UNBOUND:                 0.000
REMARK  Name = INS
REMARK  6 active torsions:
REMARK  status: ('A' for Active; 'I' for Inactive)
REMARK    1  A    between atoms: C_1  and  O_7
REMARK    2  A    between atoms: C_2  and  O_8
REMARK    3  A    between atoms: C_3  and  O_9
REMARK    4  A    between atoms: C_4  and  O_10
REMARK    5  A    between atoms: C_5  and  O_11
REMARK    6  A    between atoms: C_6  and  O_12
REMARK                            x       y       z     vdW  Elec       q    Type
REMARK                         _______ _______ _______ _____ _____    ______ ____
ROOT
ATOM      1  C   UNL     1       5.249  -2.098   1.470  1.00  0.00    +0.000 C 
ATOM      2  C   UNL     1       4.864  -2.065  -0.011  1.00  0.00    +0.000 C 
ATOM      3  C   UNL     1       3.442  -2.601  -0.179  1.00  0.00    +0.000 C 
ATOM      4  C   UNL     1       2.470  -1.730   0.620  1.00  0.00    +0.000 C 
ATOM      5  C   UNL     1       2.855  -1.763   2.101  1.00  0.00    +0.000 C 
ATOM      6  C   UNL     1       4.279  -1.228   2.269  1.00  0.00    +0.000 C 
ENDROOT
BRANCH   1   7
ATOM      7  O   UNL     1       6.578  -1.598   1.628  1.00  0.00    +0.000 OA
ATOM      8  H   UNL     1       6.846  -1.476   2.549  1.00  0.00    +0.000 HD
ENDBRANCH   1   7
BRANCH   2   9
ATOM      9  O   UNL     1       4.926  -0.720  -0.488  1.00  0.00    +0.000 OA
ATOM     10  H   UNL     1       4.685  -0.622  -1.419  1.00  0.00    +0.000 HD
ENDBRANCH   2   9
BRANCH   3  11
ATOM     11  O   UNL     1       3.082  -2.570  -1.562  1.00  0.00    +0.000 OA
ATOM     12  H   UNL     1       3.013  -3.445  -1.969  1.00  0.00    +0.000 HD
ENDBRANCH   3  11
BRANCH   4  13
ATOM     13  O   UNL     1       1.140  -2.230   0.462  1.00  0.00    +0.000 OA
ATOM     14  H   UNL     1       0.680  -1.885  -0.315  1.00  0.00    +0.000 HD
ENDBRANCH   4  13
BRANCH   5  15
ATOM     15  O   UNL     1       1.948  -0.950   2.848  1.00  0.00    +0.000 OA
ATOM     16  H   UNL     1       2.372  -0.412   3.530  1.00  0.00    +0.000 HD
ENDBRANCH   5  15
BRANCH   6  17
ATOM     17  O   UNL     1       4.638  -1.259   3.652  1.00  0.00    +0.000 OA
ATOM     18  H   UNL     1       5.417  -1.800   3.845  1.00  0.00    +0.000 HD
ENDBRANCH   6  17
TORSDOF 6
ENDMDL
MODEL 6
REMARK VINA RESULT:    -5.445      1.000      3.703
REMARK INTER + INTRA:          -6.400
REMARK INTER:                  -6.400
REMARK INTRA:                   0.000
REMARK UNBOUND:                 0.000
REMARK  Name = INS
REMARK  6 active torsions:
REMARK  status: ('A' for Active; 'I' for Inactive)
REMARK    1  A    between atoms: C_1  and  O_7
REMARK    2  A    between atoms: C_2  and  O_8
REMARK    3  A    between atoms: C_3  and  O_9
REMARK    4  A    between atoms: C_4  and  O_10
REMARK    5  A    between atoms: C_5  and  O_11
REMARK    6  A    between atoms: C_6  and  O_12
REMARK                            x       y       z     vdW  Elec       q    Type
REMARK                         _______ _______ _______ _____ _____    ______ ____
ROOT
ATOM      1  C   UNL     1       4.352  -1.164   2.215  1.00  0.00    +0.000 C 
ATOM      2  C   UNL     1       2.893  -1.627   2.240  1.00  0.00    +0.000 C 
ATOM      3  C   UNL     1       2.293  -1.492   0.839  1.00  0.00    +0.000 C 
ATOM      4  C   UNL     1       3.087  -2.357  -0.142  1.00  0.00    +0.000 C 
ATOM      5  C   UNL     1       4.545  -1.895  -0.166  1.00  0.00    +0.000 C 
ATOM      6  C   UNL     1       5.146  -2.029   1.235  1.00  0.00    +0.000 C 
ENDROOT
BRANCH   1   7
ATOM      7  O   UNL     1       4.913  -1.290   3.524  1.00  0.00    +0.000 OA
ATOM      8  H   UNL     1       5.871  -1.159   3.556  1.00  0.00    +0.000 HD
ENDBRANCH   1   7
BRANCH   2   9
ATOM      9  O   UNL     1       2.834  -2.993   2.653  1.00  0.00    +0.000 OA
ATOM     10  H   UNL     1       2.688  -3.617   1.929  1.00  0.00    +0.000 HD
ENDBRANCH   2   9
BRANCH   3  11
ATOM     11  O   UNL     1       0.931  -1.924   0.861  1.00  0.00    +0.000 OA
ATOM     12  H   UNL     1       0.797  -2.780   1.291  1.00  0.00    +0.000 HD
ENDBRANCH   3  11
BRANCH   4  13
ATOM     13  O   UNL     1       2.525  -2.231  -1.451  1.00  0.00    +0.000 OA
ATOM     14  H   UNL     1       3.173  -2.023  -2.138  1.00  0.00    +0.000 HD
ENDBRANCH   4  13
BRANCH   5  15
ATOM     15  O   UNL     1       5.287  -2.702  -1.082  1.00  0.00    +0.000 OA
ATOM     16  H   UNL     1       6.197  -2.405  -1.221  1.00  0.00    +0.000 HD
ENDBRANCH   5  15
BRANCH   6  17
ATOM     17  O   UNL     1       6.507  -1.597   1.213  1.00  0.00    +0.000 OA
ATOM     18  H   UNL     1       7.150  -2.317   1.275  1.00  0.00    +0.000 HD
ENDBRANCH   6  17
TORSDOF 6
ENDMDL
MODEL 7
REMARK VINA RESULT:    -5.224      1.056      3.002
REMARK INTER + INTRA:          -6.141
REMARK INTER:                  -6.141
REMARK INTRA:                   0.000
REMARK UNBOUND:                 0.000
REMARK  Name = INS
REMARK  6 active torsions:
REMARK  status: ('A' for Active; 'I' for Inactive)
REMARK    1  A    between atoms: C_1  and  O_7
REMARK    2  A    between atoms: C_2  and  O_8
REMARK    3  A    between atoms: C_3  and  O_9
REMARK    4  A    between atoms: C_4  and  O_10
REMARK    5  A    between atoms: C_5  and  O_11
REMARK    6  A    between atoms: C_6  and  O_12
REMARK                            x       y       z     vdW  Elec       q    Type
REMARK                         _______ _______ _______ _____ _____    ______ ____
ROOT
ATOM      1  C   UNL     1       2.235  -2.664   0.896  1.00  0.00    +0.000 C 
ATOM      2  C   UNL     1       2.617  -2.148   2.285  1.00  0.00    +0.000 C 
ATOM      3  C   UNL     1       4.125  -2.306   2.490  1.00  0.00    +0.000 C 
ATOM      4  C   UNL     1       4.872  -1.501   1.424  1.00  0.00    +0.000 C 
ATOM      5  C   UNL     1       4.490  -2.017   0.035  1.00  0.00    +0.000 C 
ATOM      6  C   UNL     1       2.981  -1.861  -0.170  1.00  0.00    +0.000 C 
ENDROOT
BRANCH   1   7
ATOM      7  O   UNL     1       0.827  -2.518   0.704  1.00  0.00    +0.000 OA
ATOM      8  H   UNL     1       0.301  -2.690   1.497  1.00  0.00    +0.000 HD
ENDBRANCH   1   7
BRANCH   2   9
ATOM      9  O   UNL     1       2.264  -0.769   2.394  1.00  0.00    +0.000 OA
ATOM     10  H   UNL     1       1.319  -0.594   2.283  1.00  0.00    +0.000 HD
ENDBRANCH   2   9
BRANCH   3  11
ATOM     11  O   UNL     1       4.481  -1.825   3.787  1.00  0.00    +0.000 OA
ATOM     12  H   UNL     1       5.183  -1.158   3.780  1.00  0.00    +0.000 HD
ENDBRANCH   3  11
BRANCH   4  13
ATOM     13  O   UNL     1       6.280  -1.648   1.616  1.00  0.00    +0.000 OA
ATOM     14  H   UNL     1       6.605  -1.273   2.446  1.00  0.00    +0.000 HD
ENDBRANCH   4  13
BRANCH   5  15
ATOM     15  O   UNL     1       5.187  -1.266  -0.961  1.00  0.00    +0.000 OA
ATOM     16  H   UNL     1       5.752  -1.802  -1.535  1.00  0.00    +0.000 HD
ENDBRANCH   5  15
BRANCH   6  17
ATOM     17  O   UNL     1       2.624  -2.342  -1.467  1.00  0.00    +0.000 OA
ATOM     18  H   UNL     1       3.156  -1.971  -2.185  1.00  0.00    +0.000 HD
ENDBRANCH   6  17
TORSDOF 6
ENDMDL
MODEL 8
REMARK VINA RESULT:    -4.877      1.286      3.719
REMARK INTER + INTRA:          -5.733
REMARK INTER:                  -5.733
REMARK INTRA:                   0.000
REMARK UNBOUND:                 0.000
REMARK  Name = INS
REMARK  6 active torsions:
REMARK  status: ('A' for Active; 'I' for Inactive)
REMARK    1  A    between atoms: C_1  and  O_7
REMARK    2  A    between atoms: C_2  and  O_8
REMARK    3  A    between atoms: C_3  and  O_9
REMARK    4  A    between atoms: C_4  and  O_10
REMARK    5  A    between atoms: C_5  and  O_11
REMARK    6  A    between atoms: C_6  and  O_12
REMARK                            x       y       z     vdW  Elec       q    Type
REMARK                         _______ _______ _______ _____ _____    ______ ____
ROOT
ATOM      1  C   UNL     1       4.236  -1.076  -0.074  1.00  0.00    +0.000 C 
ATOM      2  C   UNL     1       5.006  -1.005   1.247  1.00  0.00    +0.000 C 
ATOM      3  C   UNL     1       4.032  -1.185   2.413  1.00  0.00    +0.000 C 
ATOM      4  C   UNL     1       3.342  -2.546   2.297  1.00  0.00    +0.000 C 
ATOM      5  C   UNL     1       2.573  -2.616   0.976  1.00  0.00    +0.000 C 
ATOM      6  C   UNL     1       3.546  -2.435  -0.191  1.00  0.00    +0.000 C 
ENDROOT
BRANCH   1   7
ATOM      7  O   UNL     1       5.145  -0.907  -1.163  1.00  0.00    +0.000 OA
ATOM      8  H   UNL     1       5.779  -1.630  -1.264  1.00  0.00    +0.000 HD
ENDBRANCH   1   7
BRANCH   2   9
ATOM      9  O   UNL     1       5.987  -2.042   1.283  1.00  0.00    +0.000 OA
ATOM     10  H   UNL     1       6.282  -2.334   0.410  1.00  0.00    +0.000 HD
ENDBRANCH   2   9
BRANCH   3  11
ATOM     11  O   UNL     1       4.750  -1.118   3.647  1.00  0.00    +0.000 OA
ATOM     12  H   UNL     1       4.856  -0.221   3.993  1.00  0.00    +0.000 HD
ENDBRANCH   3  11
BRANCH   4  13
ATOM     13  O   UNL     1       2.433  -2.714   3.387  1.00  0.00    +0.000 OA
ATOM     14  H   UNL     1       1.629  -2.181   3.314  1.00  0.00    +0.000 HD
ENDBRANCH   4  13
BRANCH   5  15
ATOM     15  O   UNL     1       1.928  -3.887   0.867  1.00  0.00    +0.000 OA
ATOM     16  H   UNL     1       0.984  -3.868   1.073  1.00  0.00    +0.000 HD
ENDBRANCH   5  15
BRANCH   6  17
ATOM     17  O   UNL     1       2.829  -2.502  -1.424  1.00  0.00    +0.000 OA
ATOM     18  H   UNL     1       2.296  -3.302  -1.528  1.00  0.00    +0.000 HD
ENDBRANCH   6  17
TORSDOF 6
ENDMDL
MODEL 9
REMARK VINA RESULT:    -4.806      1.047      3.213
REMARK INTER + INTRA:          -5.649
REMARK INTER:                  -5.649
REMARK INTRA:                   0.000
REMARK UNBOUND:                 0.000
REMARK  Name = INS
REMARK  6 active torsions:
REMARK  status: ('A' for Active; 'I' for Inactive)
REMARK    1  A    between atoms: C_1  and  O_7
REMARK    2  A    between atoms: C_2  and  O_8
REMARK    3  A    between atoms: C_3  and  O_9
REMARK    4  A    between atoms: C_4  and  O_10
REMARK    5  A    between atoms: C_5  and  O_11
REMARK    6  A    between atoms: C_6  and  O_12
REMARK                            x       y       z     vdW  Elec       q    Type
REMARK                         _______ _______ _______ _____ _____    ______ ____
ROOT
ATOM      1  C   UNL     1       3.117  -2.733  -0.112  1.00  0.00    +0.000 C 
ATOM      2  C   UNL     1       2.095  -2.267   0.927  1.00  0.00    +0.000 C 
ATOM      3  C   UNL     1       2.642  -2.527   2.332  1.00  0.00    +0.000 C 
ATOM      4  C   UNL     1       3.949  -1.756   2.522  1.00  0.00    +0.000 C 
ATOM      5  C   UNL     1       4.972  -2.221   1.483  1.00  0.00    +0.000 C 
ATOM      6  C   UNL     1       4.424  -1.963   0.077  1.00  0.00    +0.000 C 
ENDROOT
BRANCH   1   7
ATOM      7  O   UNL     1       2.607  -2.492  -1.424  1.00  0.00    +0.000 OA
ATOM      8  H   UNL     1       2.109  -3.233  -1.796  1.00  0.00    +0.000 HD
ENDBRANCH   1   7
BRANCH   2   9
ATOM      9  O   UNL     1       1.852  -0.870   0.762  1.00  0.00    +0.000 OA
ATOM     10  H   UNL     1       2.392  -0.454   0.076  1.00  0.00    +0.000 HD
ENDBRANCH   2   9
BRANCH   3  11
ATOM     11  O   UNL     1       1.687  -2.093   3.302  1.00  0.00    +0.000 OA
ATOM     12  H   UNL     1       1.539  -2.726   4.018  1.00  0.00    +0.000 HD
ENDBRANCH   3  11
BRANCH   4  13
ATOM     13  O   UNL     1       4.460  -1.998   3.834  1.00  0.00    +0.000 OA
ATOM     14  H   UNL     1       4.807  -2.892   3.962  1.00  0.00    +0.000 HD
ENDBRANCH   4  13
BRANCH   5  15
ATOM     15  O   UNL     1       6.193  -1.501   1.659  1.00  0.00    +0.000 OA
ATOM     16  H   UNL     1       6.402  -1.300   2.581  1.00  0.00    +0.000 HD
ENDBRANCH   5  15
BRANCH   6  17
ATOM     17  O   UNL     1       5.379  -2.397  -0.893  1.00  0.00    +0.000 OA
ATOM     18  H   UNL     1       5.936  -1.688  -1.244  1.00  0.00    +0.000 HD
ENDBRANCH   6  17
TORSDOF 6
ENDMDL
