MODEL 1
REMARK VINA RESULT:    -5.665      0.000      0.000
REMARK INTER + INTRA:          -6.869
REMARK INTER:                  -6.824
REMARK INTRA:                  -0.046
REMARK UNBOUND:                -0.046
REMARK  Name = BGC
REMARK  6 active torsions:
REMARK  status: ('A' for Active; 'I' for Inactive)
REMARK    1  A    between atoms: C_1  and  O_8
REMARK    2  A    between atoms: C_2  and  O_9
REMARK    3  A    between atoms: C_3  and  O_10
REMARK    4  A    between atoms: C_4  and  C_5
REMARK    5  A    between atoms: C_5  and  O_12
REMARK    6  A    between atoms: C_6  and  O_7
REMARK                            x       y       z     vdW  Elec       q    Type
REMARK                         _______ _______ _______ _____ _____    ______ ____
ROOT
ATOM      1  C   UNL     1       2.671  -1.937   1.835  1.00  0.00    +0.000 C 
ATOM      2  C   UNL     1       4.027  -1.229   1.906  1.00  0.00    +0.000 C 
ATOM      3  C   UNL     1       5.047  -2.020   1.082  1.00  0.00    +0.000 C 
ATOM      4  C   UNL     1       4.537  -2.155  -0.355  1.00  0.00    +0.000 C 
ATOM      5  C   UNL     1       2.252  -2.074   0.368  1.00  0.00    +0.000 C 
ATOM      6  O   UNL     1       3.259  -2.793  -0.348  1.00  0.00    +0.000 OA
ENDROOT
BRANCH   5   7
ATOM      7  O   UNL     1       1.014  -2.783   0.291  1.00  0.00    +0.000 OA
ATOM      8  H   UNL     1       0.792  -3.091  -0.599  1.00  0.00    +0.000 HD
ENDBRANCH   5   7
BRANCH   1   9
ATOM      9  O   UNL     1       1.693  -1.169   2.540  1.00  0.00    +0.000 OA
ATOM     10  H   UNL     1       1.562  -1.447   3.457  1.00  0.00    +0.000 HD
ENDBRANCH   1   9
BRANCH   2  11
ATOM     11  O   UNL     1       4.460  -1.161   3.266  1.00  0.00    +0.000 OA
ATOM     12  H   UNL     1       5.399  -0.952   3.369  1.00  0.00    +0.000 HD
ENDBRANCH   2  11
BRANCH   3  13
ATOM     13  O   UNL     1       6.299  -1.330   1.082  1.00  0.00    +0.000 OA
ATOM     14  H   UNL     1       7.055  -1.888   0.851  1.00  0.00    +0.000 HD
ENDBRANCH   3  13
BRANCH   4  15
ATOM     15  C   UNL     1       5.523  -2.995  -1.170  1.00  0.00    +0.000 C 
BRANCH  15  16
ATOM     16  O   UNL     1       4.818  -4.049  -1.828  1.00  0.00    +0.000 OA
ATOM     17  H   UNL     1       3.992  -3.770  -2.246  1.00  0.00    +0.000 HD
ENDBRANCH  15  16
ENDBRANCH   4  15
TORSDOF 6
ENDMDL
MODEL 2
REMARK VINA RESULT:    -5.528      0.993      2.783
REMARK INTER + INTRA:          -6.705
REMARK INTER:                  -6.465
REMARK INTRA:                  -0.240
REMARK UNBOUND:                -0.046
REMARK  Name = BGC
REMARK  6 active torsions:
REMARK  status: ('A' for Active; 'I' for Inactive)
REMARK    1  A    between atoms: C_1  and  O_8
REMARK    2  A    between atoms: C_2  and  O_9
REMARK    3  A    between atoms: C_3  and  O_10
REMARK    4  A    between atoms: C_4  and  C_5
REMARK    5  A    between atoms: C_5  and  O_12
REMARK    6  A    between atoms: C_6  and  O_7
REMARK                            x       y       z     vdW  Elec       q    Type
REMARK                         _______ _______ _______ _____ _____    ______ ____
ROOT
ATOM      1  C   UNL     1       2.920  -1.113   2.016  1.00  0.00    +0.000 C 
ATOM      2  C   UNL     1       2.312  -1.763   0.770  1.00  0.00    +0.000 C 
ATOM      3  C   UNL     1       3.379  -1.832  -0.328  1.00  0.00    +0.000 C 
ATOM      4  C   UNL     1       4.592  -2.604   0.198  1.00  0.00    +0.000 C 
ATOM      5  C   UNL     1       4.150  -1.914   2.452  1.00  0.00    +0.000 C 
ATOM      6  O   UNL     1       5.089  -1.965   1.374  1.00  0.00    +0.000 OA
ENDROOT
BRANCH   5   7
ATOM      7  O   UNL     1       4.755  -1.281   3.581  1.00  0.00    +0.000 OA
ATOM      8  H   UNL     1       4.925  -1.878   4.323  1.00  0.00    +0.000 HD
ENDBRANCH   5   7
BRANCH   1   9
ATOM      9  O   UNL     1       1.956  -1.109   3.071  1.00  0.00    +0.000 OA
ATOM     10  H   UNL     1       2.254  -1.550   3.878  1.00  0.00    +0.000 HD
ENDBRANCH   1   9
BRANCH   2  11
ATOM     11  O   UNL     1       1.207  -0.982   0.313  1.00  0.00    +0.000 OA
ATOM     12  H   UNL     1       1.402  -0.442  -0.465  1.00  0.00    +0.000 HD
ENDBRANCH   2  11
BRANCH   3  13
ATOM     13  O   UNL     1       2.845  -2.503  -1.471  1.00  0.00    +0.000 OA
ATOM     14  H   UNL     1       3.330  -3.301  -1.721  1.00  0.00    +0.000 HD
ENDBRANCH   3  13
BRANCH   4  15
ATOM     15  C   UNL     1       5.686  -2.626  -0.872  1.00  0.00    +0.000 C 
BRANCH  15  16
ATOM     16  O   UNL     1       5.412  -3.666  -1.812  1.00  0.00    +0.000 OA
ATOM     17  H   UNL     1       5.147  -4.503  -1.406  1.00  0.00    +0.000 HD
ENDBRANCH  15  16
ENDBRANCH   4  15
TORSDOF 6
ENDMDL
MODEL 3
REMARK VINA RESULT:    -5.003      1.053      3.968
REMARK INTER + INTRA:          -6.072
REMARK INTER:                  -5.863
REMARK INTRA:                  -0.209
REMARK UNBOUND:                -0.046
REMARK  Name = BGC
REMARK  6 active torsions:
REMARK  status: ('A' for Active; 'I' for Inactive)
REMARK    1  A    between atoms: C_1  and  O_8
REMARK    2  A    between atoms: C_2  and  O_9
REMARK    3  A    between atoms: C_3  and  O_10
REMARK    4  A    between atoms: C_4  and  C_5
REMARK    5  A    between atoms: C_5  and  O_12
REMARK    6  A    between atoms: C_6  and  O_7
REMARK                            x       y       z     vdW  Elec       q    Type
REMARK                         _______ _______ _______ _____ _____    ______ ____
ROOT
ATOM      1  C   UNL     1       5.332  -2.030   1.247  1.00  0.00    +0.000 C 
ATOM      2  C   UNL     1       4.684  -1.898  -0.134  1.00  0.00    +0.000 C 
ATOM      3  C   UNL     1       3.211  -2.308  -0.035  1.00  0.00    +0.000 C 
ATOM      4  C   UNL     1       2.517  -1.440   1.018  1.00  0.00    +0.000 C 
ATOM      5  C   UNL     1       4.557  -1.172   2.250  1.00  0.00    +0.000 C 
ATOM      6  O   UNL     1       3.189  -1.585   2.270  1.00  0.00    +0.000 OA
ENDROOT
BRANCH   5   7
ATOM      7  O   UNL     1       5.123  -1.334   3.552  1.00  0.00    +0.000 OA
ATOM      8  H   UNL     1       4.947  -2.195   3.954  1.00  0.00    +0.000 HD
ENDBRANCH   5   7
BRANCH   1   9
ATOM      9  O   UNL     1       6.688  -1.581   1.182  1.00  0.00    +0.000 OA
ATOM     10  H   UNL     1       7.282  -2.035   1.796  1.00  0.00    +0.000 HD
ENDBRANCH   1   9
BRANCH   2  11
ATOM     11  O   UNL     1       5.355  -2.752  -1.063  1.00  0.00    +0.000 OA
ATOM     12  H   UNL     1       4.891  -3.582  -1.240  1.00  0.00    +0.000 HD
ENDBRANCH   2  11
BRANCH   3  13
ATOM     13  O   UNL     1       2.576  -2.121  -1.302  1.00  0.00    +0.000 OA
ATOM     14  H   UNL     1       2.947  -1.396  -1.824  1.00  0.00    +0.000 HD
ENDBRANCH   3  13
BRANCH   4  15
ATOM     15  C   UNL     1       1.060  -1.884   1.166  1.00  0.00    +0.000 C 
BRANCH  15  16
ATOM     16  O   UNL     1       0.880  -3.148   0.525  1.00  0.00    +0.000 OA
ATOM     17  H   UNL     1       0.605  -3.085  -0.400  1.00  0.00    +0.000 HD
ENDBRANCH  15  16
ENDBRANCH   4  15
TORSDOF 6
ENDMDL
MODEL 4
REMARK VINA RESULT:    -4.864      1.368      4.486
REMARK INTER + INTRA:          -5.905
REMARK INTER:                  -5.860
REMARK INTRA:                  -0.045
REMARK UNBOUND:                -0.046
REMARK  Name = BGC
REMARK  6 active torsions:
REMARK  status: ('A' for Active; 'I' for Inactive)
REMARK    1  A    between atoms: C_1  and  O_8
REMARK    2  A    between atoms: C_2  and  O_9
REMARK    3  A    between atoms: C_3  and  O_10
REMARK    4  A    between atoms: C_4  and  C_5
REMARK    5  A    between atoms: C_5  and  O_12
REMARK    6  A    between atoms: C_6  and  O_7
REMARK                            x       y       z     vdW  Elec       q    Type
REMARK                         _______ _______ _______ _____ _____    ______ ____
ROOT
ATOM      1  C   UNL     1       4.719  -2.060   0.554  1.00  0.00    +0.000 C 
ATOM      2  C   UNL     1       3.311  -1.935  -0.037  1.00  0.00    +0.000 C 
ATOM      3  C   UNL     1       2.317  -2.643   0.888  1.00  0.00    +0.000 C 
ATOM      4  C   UNL     1       2.415  -2.037   2.290  1.00  0.00    +0.000 C 
ATOM      5  C   UNL     1       4.724  -1.474   1.969  1.00  0.00    +0.000 C 
ATOM      6  O   UNL     1       3.755  -2.158   2.768  1.00  0.00    +0.000 OA
ENDROOT
BRANCH   5   7
ATOM      7  O   UNL     1       6.020  -1.637   2.547  1.00  0.00    +0.000 OA
ATOM      8  H   UNL     1       6.535  -0.820   2.596  1.00  0.00    +0.000 HD
ENDBRANCH   5   7
BRANCH   1   9
ATOM      9  O   UNL     1       5.645  -1.340  -0.263  1.00  0.00    +0.000 OA
ATOM     10  H   UNL     1       5.514  -0.382  -0.256  1.00  0.00    +0.000 HD
ENDBRANCH   1   9
BRANCH   2  11
ATOM     11  O   UNL     1       3.279  -2.544  -1.329  1.00  0.00    +0.000 OA
ATOM     12  H   UNL     1       3.139  -1.919  -2.054  1.00  0.00    +0.000 HD
ENDBRANCH   2  11
BRANCH   3  13
ATOM     13  O   UNL     1       0.991  -2.472   0.385  1.00  0.00    +0.000 OA
ATOM     14  H   UNL     1       0.884  -2.735  -0.539  1.00  0.00    +0.000 HD
ENDBRANCH   3  13
BRANCH   4  15
ATOM     15  C   UNL     1       1.467  -2.780   3.235  1.00  0.00    +0.000 C 
BRANCH  15  16
ATOM     16  O   UNL     1       2.173  -3.152   4.420  1.00  0.00    +0.000 OA
ATOM     17  H   UNL     1       1.886  -3.993   4.801  1.00  0.00    +0.000 HD
ENDBRANCH  15  16
ENDBRANCH   4  15
TORSDOF 6
ENDMDL
MODEL 5
REMARK VINA RESULT:    -4.834      1.281      3.655
REMARK INTER + INTRA:          -5.869
REMARK INTER:                  -5.644
REMARK INTRA:                  -0.225
REMARK UNBOUND:                -0.046
REMARK  Name = BGC
REMARK  6 active torsions:
REMARK  status: ('A' for Active; 'I' for Inactive)
REMARK    1  A    between atoms: C_1  and  O_8
REMARK    2  A    between atoms: C_2  and  O_9
REMARK    3  A    between atoms: C_3  and  O_10
REMARK    4  A    between atoms: C_4  and  C_5
REMARK    5  A    between atoms: C_5  and  O_12
REMARK    6  A    between atoms: C_6  and  O_7
REMARK                            x       y       z     vdW  Elec       q    Type
REMARK                         _______ _______ _______ _____ _____    ______ ____
ROOT
ATOM      1  C   UNL     1       4.354  -1.730  -0.146  1.00  0.00    +0.000 C 
ATOM      2  C   UNL     1       4.921  -2.089   1.231  1.00  0.00    +0.000 C 
ATOM      3  C   UNL     1       3.943  -1.616   2.312  1.00  0.00    +0.000 C 
ATOM      4  C   UNL     1       2.573  -2.253   2.063  1.00  0.00    +0.000 C 
ATOM      5  C   UNL     1       2.968  -2.363  -0.300  1.00  0.00    +0.000 C 
ATOM      6  O   UNL     1       2.118  -1.905   0.755  1.00  0.00    +0.000 OA
ENDROOT
BRANCH   5   7
ATOM      7  O   UNL     1       2.410  -1.987  -1.559  1.00  0.00    +0.000 OA
ATOM      8  H   UNL     1       1.801  -1.237  -1.512  1.00  0.00    +0.000 HD
ENDBRANCH   5   7
BRANCH   1   9
ATOM      9  O   UNL     1       5.223  -2.230  -1.165  1.00  0.00    +0.000 OA
ATOM     10  H   UNL     1       4.772  -2.748  -1.846  1.00  0.00    +0.000 HD
ENDBRANCH   1   9
BRANCH   2  11
ATOM     11  O   UNL     1       6.182  -1.442   1.413  1.00  0.00    +0.000 OA
ATOM     12  H   UNL     1       6.813  -1.604   0.698  1.00  0.00    +0.000 HD
ENDBRANCH   2  11
BRANCH   3  13
ATOM     13  O   UNL     1       4.426  -2.009   3.598  1.00  0.00    +0.000 OA
ATOM     14  H   UNL     1       4.218  -1.382   4.304  1.00  0.00    +0.000 HD
ENDBRANCH   3  13
BRANCH   4  15
ATOM     15  C   UNL     1       1.575  -1.739   3.104  1.00  0.00    +0.000 C 
BRANCH  15  16
ATOM     16  O   UNL     1       1.463  -2.689   4.165  1.00  0.00    +0.000 OA
ATOM     17  H   UNL     1       2.179  -2.643   4.812  1.00  0.00    +0.000 HD
ENDBRANCH  15  16
ENDBRANCH   4  15
TORSDOF 6
ENDMDL
MODEL 6
REMARK VINA RESULT:    -4.827      1.249      4.125
REMARK INTER + INTRA:          -5.860
REMARK INTER:                  -5.826
REMARK INTRA:                  -0.034
REMARK UNBOUND:                -0.046
REMARK  Name = BGC
REMARK  6 active torsions:
REMARK  status: ('A' for Active; 'I' for Inactive)
REMARK    1  A    between atoms: C_1  and  O_8
REMARK    2  A    between atoms: C_2  and  O_9
REMARK    3  A    between atoms: C_3  and  O_10
REMARK    4  A    between atoms: C_4  and  C_5
REMARK    5  A    between atoms: C_5  and  O_12
REMARK    6  A    between atoms: C_6  and  O_7
REMARK                            x       y       z     vdW  Elec       q    Type
REMARK                         _______ _______ _______ _____ _____    ______ ____
ROOT
ATOM      1  C   UNL     1       3.400  -2.631  -0.105  1.00  0.00    +0.000 C 
ATOM      2  C   UNL     1       2.286  -2.080   0.789  1.00  0.00    +0.000 C 
ATOM      3  C   UNL     1       2.692  -2.253   2.256  1.00  0.00    +0.000 C 
ATOM      4  C   UNL     1       4.030  -1.549   2.494  1.00  0.00    +0.000 C 
ATOM      5  C   UNL     1       4.711  -1.911   0.222  1.00  0.00    +0.000 C 
ATOM      6  O   UNL     1       5.014  -2.086   1.609  1.00  0.00    +0.000 OA
ENDROOT
BRANCH   5   7
ATOM      7  O   UNL     1       5.766  -2.459  -0.569  1.00  0.00    +0.000 OA
ATOM      8  H   UNL     1       5.536  -2.583  -1.500  1.00  0.00    +0.000 HD
ENDBRANCH   5   7
BRANCH   1   9
ATOM      9  O   UNL     1       3.064  -2.409  -1.477  1.00  0.00    +0.000 OA
ATOM     10  H   UNL     1       3.621  -1.751  -1.917  1.00  0.00    +0.000 HD
ENDBRANCH   1   9
BRANCH   2  11
ATOM     11  O   UNL     1       1.074  -2.796   0.542  1.00  0.00    +0.000 OA
ATOM     12  H   UNL     1       1.210  -3.693   0.208  1.00  0.00    +0.000 HD
ENDBRANCH   2  11
BRANCH   3  13
ATOM     13  O   UNL     1       1.693  -1.677   3.100  1.00  0.00    +0.000 OA
ATOM     14  H   UNL     1       1.884  -1.755   4.045  1.00  0.00    +0.000 HD
ENDBRANCH   3  13
BRANCH   4  15
ATOM     15  C   UNL     1       4.473  -1.768   3.942  1.00  0.00    +0.000 C 
BRANCH  15  16
ATOM     16  O   UNL     1       5.634  -0.979   4.210  1.00  0.00    +0.000 OA
ATOM     17  H   UNL     1       5.541  -0.387   4.969  1.00  0.00    +0.000 HD
ENDBRANCH  15  16
ENDBRANCH   4  15
TORSDOF 6
ENDMDL
MODEL 7
REMARK VINA RESULT:    -4.678     12.418     14.317
REMARK INTER + INTRA:          -5.681
REMARK INTER:                  -5.435
REMARK INTRA:                  -0.246
REMARK UNBOUND:                -0.046
REMARK  Name = BGC
REMARK  6 active torsions:
REMARK  status: ('A' for Active; 'I' for Inactive)
REMARK    1  A    between atoms: C_1  and  O_8
REMARK    2  A    between atoms: C_2  and  O_9
REMARK    3  A    between atoms: C_3  and  O_10
REMARK    4  A    between atoms: C_4  and  C_5
REMARK    5  A    between atoms: C_5  and  O_12
REMARK    6  A    between atoms: C_6  and  O_7
REMARK                            x       y       z     vdW  Elec       q    Type
REMARK                         _______ _______ _______ _____ _____    ______ ____
ROOT
ATOM      1  C   UNL     1      -8.375 -10.854  -0.764  1.00  0.00    +0.000 C 
ATOM      2  C   UNL     1      -7.130  -9.967  -0.867  1.00  0.00    +0.000 C 
ATOM      3  C   UNL     1      -7.282  -8.780   0.089  1.00  0.00    +0.000 C 
ATOM      4  C   UNL     1      -7.505  -9.304   1.510  1.00  0.00    +0.000 C 
ATOM      5  C   UNL     1      -8.555 -11.299   0.690  1.00  0.00    +0.000 C 
ATOM      6  O   UNL     1      -8.659 -10.146   1.530  1.00  0.00    +0.000 OA
ENDROOT
BRANCH   5   7
ATOM      7  O   UNL     1      -9.745 -12.081   0.805  1.00  0.00    +0.000 OA
ATOM      8  H   UNL     1     -10.561 -11.577   0.676  1.00  0.00    +0.000 HD
ENDBRANCH   5   7
BRANCH   1   9
ATOM      9  O   UNL     1      -8.213 -12.003  -1.597  1.00  0.00    +0.000 OA
ATOM     10  H   UNL     1      -8.461 -12.836  -1.172  1.00  0.00    +0.000 HD
ENDBRANCH   1   9
BRANCH   2  11
ATOM     11  O   UNL     1      -6.994  -9.488  -2.207  1.00  0.00    +0.000 OA
ATOM     12  H   UNL     1      -6.385 -10.006  -2.749  1.00  0.00    +0.000 HD
ENDBRANCH   2  11
BRANCH   3  13
ATOM     13  O   UNL     1      -6.095  -7.984   0.054  1.00  0.00    +0.000 OA
ATOM     14  H   UNL     1      -5.541  -8.138  -0.723  1.00  0.00    +0.000 HD
ENDBRANCH   3  13
BRANCH   4  15
ATOM     15  C   UNL     1      -7.717  -8.125   2.461  1.00  0.00    +0.000 C 
BRANCH  15  16
ATOM     16  O   UNL     1      -6.457  -7.701   2.983  1.00  0.00    +0.000 OA
ATOM     17  H   UNL     1      -5.770  -7.589   2.310  1.00  0.00    +0.000 HD
ENDBRANCH  15  16
ENDBRANCH   4  15
TORSDOF 6
ENDMDL
MODEL 8
REMARK VINA RESULT:    -4.671     12.025     13.972
REMARK INTER + INTRA:          -5.672
REMARK INTER:                  -5.463
REMARK INTRA:                  -0.209
REMARK UNBOUND:                -0.046
REMARK  Name = BGC
REMARK  6 active torsions:
REMARK  status: ('A' for Active; 'I' for Inactive)
REMARK    1  A    between atoms: C_1  and  O_8
REMARK    2  A    between atoms: C_2  and  O_9
REMARK    3  A    between atoms: C_3  and  O_10
REMARK    4  A    between atoms: C_4  and  C_5
REMARK    5  A    between atoms: C_5  and  O_12
REMARK    6  A    between atoms: C_6  and  O_7
REMARK                            x       y       z     vdW  Elec       q    Type
REMARK                         _______ _______ _______ _____ _____    ______ ____
ROOT
ATOM      1  C   UNL     1      -7.622  -8.551   2.298  1.00  0.00    +0.000 C 
ATOM      2  C   UNL     1      -7.078  -8.066   0.951  1.00  0.00    +0.000 C 
ATOM      3  C   UNL     1      -7.576  -9.002  -0.155  1.00  0.00    +0.000 C 
ATOM      4  C   UNL     1      -9.106  -9.043  -0.127  1.00  0.00    +0.000 C 
ATOM      5  C   UNL     1      -9.151  -8.609   2.231  1.00  0.00    +0.000 C 
ATOM      6  O   UNL     1      -9.547  -9.472   1.162  1.00  0.00    +0.000 OA
ENDROOT
BRANCH   5   7
ATOM      7  O   UNL     1      -9.663  -9.113   3.466  1.00  0.00    +0.000 OA
ATOM      8  H   UNL     1      -9.083  -9.753   3.900  1.00  0.00    +0.000 HD
ENDBRANCH   5   7
BRANCH   1   9
ATOM      9  O   UNL     1      -7.224  -7.644   3.328  1.00  0.00    +0.000 OA
ATOM     10  H   UNL     1      -7.596  -7.848   4.197  1.00  0.00    +0.000 HD
ENDBRANCH   1   9
BRANCH   2  11
ATOM     11  O   UNL     1      -5.649  -8.079   0.979  1.00  0.00    +0.000 OA
ATOM     12  H   UNL     1      -5.275  -8.640   1.673  1.00  0.00    +0.000 HD
ENDBRANCH   2  11
BRANCH   3  13
ATOM     13  O   UNL     1      -7.135  -8.519  -1.425  1.00  0.00    +0.000 OA
ATOM     14  H   UNL     1      -7.758  -8.682  -2.146  1.00  0.00    +0.000 HD
ENDBRANCH   3  13
BRANCH   4  15
ATOM     15  C   UNL     1      -9.610 -10.023  -1.190  1.00  0.00    +0.000 C 
BRANCH  15  16
ATOM     16  O   UNL     1      -9.453  -9.441  -2.485  1.00  0.00    +0.000 OA
ATOM     17  H   UNL     1      -8.658  -8.898  -2.579  1.00  0.00    +0.000 HD
ENDBRANCH  15  16
ENDBRANCH   4  15
TORSDOF 6
ENDMDL
MODEL 9
REMARK VINA RESULT:    -4.543     11.997     14.192
REMARK INTER + INTRA:          -5.518
REMARK INTER:                  -5.484
REMARK INTRA:                  -0.034
REMARK UNBOUND:                -0.046
REMARK  Name = BGC
REMARK  6 active torsions:
REMARK  status: ('A' for Active; 'I' for Inactive)
REMARK    1  A    between atoms: C_1  and  O_8
REMARK    2  A    between atoms: C_2  and  O_9
REMARK    3  A    between atoms: C_3  and  O_10
REMARK    4  A    between atoms: C_4  and  C_5
REMARK    5  A    between atoms: C_5  and  O_12
REMARK    6  A    between atoms: C_6  and  O_7
REMARK                            x       y       z     vdW  Elec       q    Type
REMARK                         _______ _______ _______ _____ _____    ______ ____
ROOT
ATOM      1  C   UNL     1      -8.387 -10.512  -0.561  1.00  0.00    +0.000 C 
ATOM      2  C   UNL     1      -9.125 -10.123   0.723  1.00  0.00    +0.000 C 
ATOM      3  C   UNL     1      -8.133  -9.468   1.690  1.00  0.00    +0.000 C 
ATOM      4  C   UNL     1      -7.485  -8.262   1.004  1.00  0.00    +0.000 C 
ATOM      5  C   UNL     1      -7.730  -9.265  -1.161  1.00  0.00    +0.000 C 
ATOM      6  O   UNL     1      -6.844  -8.687  -0.199  1.00  0.00    +0.000 OA
ENDROOT
BRANCH   5   7
ATOM      7  O   UNL     1      -6.994  -9.629  -2.329  1.00  0.00    +0.000 OA
ATOM      8  H   UNL     1      -6.885 -10.583  -2.445  1.00  0.00    +0.000 HD
ENDBRANCH   5   7
BRANCH   1   9
ATOM      9  O   UNL     1      -9.317 -11.058  -1.499  1.00  0.00    +0.000 OA
ATOM     10  H   UNL     1     -10.230 -10.773  -1.359  1.00  0.00    +0.000 HD
ENDBRANCH   1   9
BRANCH   2  11
ATOM     11  O   UNL     1      -9.679 -11.293   1.329  1.00  0.00    +0.000 OA
ATOM     12  H   UNL     1      -9.075 -11.747   1.932  1.00  0.00    +0.000 HD
ENDBRANCH   2  11
BRANCH   3  13
ATOM     13  O   UNL     1      -8.824  -9.036   2.864  1.00  0.00    +0.000 OA
ATOM     14  H   UNL     1      -9.787  -9.081   2.792  1.00  0.00    +0.000 HD
ENDBRANCH   3  13
BRANCH   4  15
ATOM     15  C   UNL     1      -6.449  -7.637   1.942  1.00  0.00    +0.000 C 
BRANCH  15  16
ATOM     16  O   UNL     1      -5.995  -6.400   1.391  1.00  0.00    +0.000 OA
ATOM     17  H   UNL     1      -5.054  -6.390   1.168  1.00  0.00    +0.000 HD
ENDBRANCH  15  16
ENDBRANCH   4  15
TORSDOF 6
ENDMDL
