MODEL 1
REMARK VINA RESULT:    -6.401      0.000      0.000
REMARK INTER + INTRA:          -7.149
REMARK INTER:                  -7.149
REMARK INTRA:                   0.000
REMARK UNBOUND:                 0.000
REMARK  Name = XYP
REMARK  4 active torsions:
REMARK  status: ('A' for Active; 'I' for Inactive)
REMARK    1  A    between atoms: O_1  and  C_2
REMARK    2  A    between atoms: C_3  and  O_7
REMARK    3  A    between atoms: C_4  and  O_8
REMARK    4  A    between atoms: C_5  and  O_9
REMARK                            x       y       z     vdW  Elec       q    Type
REMARK                         _______ _______ _______ _____ _____    ______ ____
ROOT
ATOM      1  C   UNL     1       4.123  -2.931   0.022  1.00  0.00    +0.000 C 
ATOM      2  C   UNL     1       4.542  -1.637   0.723  1.00  0.00    +0.000 C 
ATOM      3  C   UNL     1       3.753  -1.494   2.028  1.00  0.00    +0.000 C 
ATOM      4  C   UNL     1       2.258  -1.613   1.713  1.00  0.00    +0.000 C 
ATOM      5  C   UNL     1       2.011  -2.909   0.937  1.00  0.00    +0.000 C 
ATOM      6  O   UNL     1       2.732  -2.881  -0.292  1.00  0.00    +0.000 OA
ENDROOT
BRANCH   1   7
ATOM      7  O   UNL     1       4.877  -3.085  -1.181  1.00  0.00    +0.000 OA
ATOM      8  H   UNL     1       4.294  -3.506  -1.825  1.00  0.00    +0.000 HD
ENDBRANCH   1   7
BRANCH   2   9
ATOM      9  O   UNL     1       5.941  -1.680   1.010  1.00  0.00    +0.000 OA
ATOM     10  H   UNL     1       6.103  -2.504   1.491  1.00  0.00    +0.000 HD
ENDBRANCH   2   9
BRANCH   3  11
ATOM     11  O   UNL     1       4.025  -0.223   2.618  1.00  0.00    +0.000 OA
ATOM     12  H   UNL     1       4.795  -0.339   3.192  1.00  0.00    +0.000 HD
ENDBRANCH   3  11
BRANCH   4  13
ATOM     13  O   UNL     1       1.511  -1.635   2.931  1.00  0.00    +0.000 OA
ATOM     14  H   UNL     1       1.759  -0.842   3.425  1.00  0.00    +0.000 HD
ENDBRANCH   4  13
TORSDOF 4
ENDMDL
MODEL 2
REMARK VINA RESULT:    -5.906      1.264      3.578
REMARK INTER + INTRA:          -6.597
REMARK INTER:                  -6.597
REMARK INTRA:                   0.000
REMARK UNBOUND:                 0.000
REMARK  Name = XYP
REMARK  4 active torsions:
REMARK  status: ('A' for Active; 'I' for Inactive)
REMARK    1  A    between atoms: O_1  and  C_2
REMARK    2  A    between atoms: C_3  and  O_7
REMARK    3  A    between atoms: C_4  and  O_8
REMARK    4  A    between atoms: C_5  and  O_9
REMARK                            x       y       z     vdW  Elec       q    Type
REMARK                         _______ _______ _______ _____ _____    ______ ____
ROOT
ATOM      1  C   UNL     1       4.512  -1.781   2.323  1.00  0.00    +0.000 C 
ATOM      2  C   UNL     1       3.002  -1.976   2.173  1.00  0.00    +0.000 C 
ATOM      3  C   UNL     1       2.714  -2.653   0.829  1.00  0.00    +0.000 C 
ATOM      4  C   UNL     1       3.383  -1.839  -0.284  1.00  0.00    +0.000 C 
ATOM      5  C   UNL     1       4.864  -1.654   0.052  1.00  0.00    +0.000 C 
ATOM      6  O   UNL     1       4.996  -0.940   1.278  1.00  0.00    +0.000 OA
ENDROOT
BRANCH   1   7
ATOM      7  O   UNL     1       4.789  -1.176   3.587  1.00  0.00    +0.000 OA
ATOM      8  H   UNL     1       5.512  -0.551   3.446  1.00  0.00    +0.000 HD
ENDBRANCH   1   7
BRANCH   2   9
ATOM      9  O   UNL     1       2.517  -2.796   3.237  1.00  0.00    +0.000 OA
ATOM     10  H   UNL     1       1.996  -3.502   2.831  1.00  0.00    +0.000 HD
ENDBRANCH   2   9
BRANCH   3  11
ATOM     11  O   UNL     1       1.304  -2.708   0.611  1.00  0.00    +0.000 OA
ATOM     12  H   UNL     1       1.152  -3.371  -0.076  1.00  0.00    +0.000 HD
ENDBRANCH   3  11
BRANCH   4  13
ATOM     13  O   UNL     1       3.257  -2.532  -1.527  1.00  0.00    +0.000 OA
ATOM     14  H   UNL     1       2.706  -1.982  -2.100  1.00  0.00    +0.000 HD
ENDBRANCH   4  13
TORSDOF 4
ENDMDL
MODEL 3
REMARK VINA RESULT:    -5.712      0.951      3.046
REMARK INTER + INTRA:          -6.380
REMARK INTER:                  -6.380
REMARK INTRA:                   0.000
REMARK UNBOUND:                 0.000
REMARK  Name = XYP
REMARK  4 active torsions:
REMARK  status: ('A' for Active; 'I' for Inactive)
REMARK    1  A    between atoms: O_1  and  C_2
REMARK    2  A    between atoms: C_3  and  O_7
REMARK    3  A    between atoms: C_4  and  O_8
REMARK    4  A    between atoms: C_5  and  O_9
REMARK                            x       y       z     vdW  Elec       q    Type
REMARK                         _______ _______ _______ _____ _____    ______ ____
ROOT
ATOM      1  C   UNL     1       2.231  -2.174   0.432  1.00  0.00    +0.000 C 
ATOM      2  C   UNL     1       2.686  -1.976   1.879  1.00  0.00    +0.000 C 
ATOM      3  C   UNL     1       4.083  -1.346   1.884  1.00  0.00    +0.000 C 
ATOM      4  C   UNL     1       5.012  -2.203   1.018  1.00  0.00    +0.000 C 
ATOM      5  C   UNL     1       4.381  -2.385  -0.364  1.00  0.00    +0.000 C 
ATOM      6  O   UNL     1       3.130  -3.056  -0.240  1.00  0.00    +0.000 OA
ENDROOT
BRANCH   1   7
ATOM      7  O   UNL     1       0.918  -2.735   0.420  1.00  0.00    +0.000 OA
ATOM      8  H   UNL     1       0.313  -2.036   0.702  1.00  0.00    +0.000 HD
ENDBRANCH   1   7
BRANCH   2   9
ATOM      9  O   UNL     1       1.769  -1.115   2.555  1.00  0.00    +0.000 OA
ATOM     10  H   UNL     1       2.112  -0.215   2.468  1.00  0.00    +0.000 HD
ENDBRANCH   2   9
BRANCH   3  11
ATOM     11  O   UNL     1       4.580  -1.291   3.222  1.00  0.00    +0.000 OA
ATOM     12  H   UNL     1       4.780  -2.199   3.485  1.00  0.00    +0.000 HD
ENDBRANCH   3  11
BRANCH   4  13
ATOM     13  O   UNL     1       6.278  -1.554   0.885  1.00  0.00    +0.000 OA
ATOM     14  H   UNL     1       6.664  -1.862   0.055  1.00  0.00    +0.000 HD
ENDBRANCH   4  13
TORSDOF 4
ENDMDL
MODEL 4
REMARK VINA RESULT:    -5.580      0.823      3.224
REMARK INTER + INTRA:          -6.233
REMARK INTER:                  -6.233
REMARK INTRA:                   0.000
REMARK UNBOUND:                 0.000
REMARK  Name = XYP
REMARK  4 active torsions:
REMARK  status: ('A' for Active; 'I' for Inactive)
REMARK    1  A    between atoms: O_1  and  C_2
REMARK    2  A    between atoms: C_3  and  O_7
REMARK    3  A    between atoms: C_4  and  O_8
REMARK    4  A    between atoms: C_5  and  O_9
REMARK                            x       y       z     vdW  Elec       q    Type
REMARK                         _______ _______ _______ _____ _____    ______ ____
ROOT
ATOM      1  C   UNL     1       2.356  -2.101   2.074  1.00  0.00    +0.000 C 
ATOM      2  C   UNL     1       3.782  -1.551   2.141  1.00  0.00    +0.000 C 
ATOM      3  C   UNL     1       4.400  -1.585   0.740  1.00  0.00    +0.000 C 
ATOM      4  C   UNL     1       4.272  -3.006   0.181  1.00  0.00    +0.000 C 
ATOM      5  C   UNL     1       2.809  -3.446   0.262  1.00  0.00    +0.000 C 
ATOM      6  O   UNL     1       2.381  -3.453   1.621  1.00  0.00    +0.000 OA
ENDROOT
BRANCH   1   7
ATOM      7  O   UNL     1       1.764  -2.045   3.372  1.00  0.00    +0.000 OA
ATOM      8  H   UNL     1       2.374  -1.553   3.938  1.00  0.00    +0.000 HD
ENDBRANCH   1   7
BRANCH   2   9
ATOM      9  O   UNL     1       3.754  -0.206   2.622  1.00  0.00    +0.000 OA
ATOM     10  H   UNL     1       2.844  -0.026   2.896  1.00  0.00    +0.000 HD
ENDBRANCH   2   9
BRANCH   3  11
ATOM     11  O   UNL     1       5.777  -1.213   0.813  1.00  0.00    +0.000 OA
ATOM     12  H   UNL     1       6.287  -1.957   0.465  1.00  0.00    +0.000 HD
ENDBRANCH   3  11
BRANCH   4  13
ATOM     13  O   UNL     1       4.704  -3.026  -1.181  1.00  0.00    +0.000 OA
ATOM     14  H   UNL     1       3.978  -2.671  -1.710  1.00  0.00    +0.000 HD
ENDBRANCH   4  13
TORSDOF 4
ENDMDL
MODEL 5
REMARK VINA RESULT:    -5.543      1.048      3.036
REMARK INTER + INTRA:          -6.191
REMARK INTER:                  -6.191
REMARK INTRA:                   0.000
REMARK UNBOUND:                 0.000
REMARK  Name = XYP
REMARK  4 active torsions:
REMARK  status: ('A' for Active; 'I' for Inactive)
REMARK    1  A    between atoms: O_1  and  C_2
REMARK    2  A    between atoms: C_3  and  O_7
REMARK    3  A    between atoms: C_4  and  O_8
REMARK    4  A    between atoms: C_5  and  O_9
REMARK                            x       y       z     vdW  Elec       q    Type
REMARK                         _______ _______ _______ _____ _____    ______ ____
ROOT
ATOM      1  C   UNL     1       4.254  -1.250   2.269  1.00  0.00    +0.000 C 
ATOM      2  C   UNL     1       4.995  -2.120   1.252  1.00  0.00    +0.000 C 
ATOM      3  C   UNL     1       4.293  -2.013  -0.106  1.00  0.00    +0.000 C 
ATOM      4  C   UNL     1       2.809  -2.345   0.081  1.00  0.00    +0.000 C 
ATOM      5  C   UNL     1       2.233  -1.458   1.187  1.00  0.00    +0.000 C 
ATOM      6  O   UNL     1       2.912  -1.713   2.413  1.00  0.00    +0.000 OA
ENDROOT
BRANCH   1   7
ATOM      7  O   UNL     1       4.920  -1.323   3.530  1.00  0.00    +0.000 OA
ATOM      8  H   UNL     1       4.245  -1.514   4.193  1.00  0.00    +0.000 HD
ENDBRANCH   1   7
BRANCH   2   9
ATOM      9  O   UNL     1       6.345  -1.671   1.131  1.00  0.00    +0.000 OA
ATOM     10  H   UNL     1       6.808  -1.957   1.932  1.00  0.00    +0.000 HD
ENDBRANCH   2   9
BRANCH   3  11
ATOM     11  O   UNL     1       4.884  -2.932  -1.026  1.00  0.00    +0.000 OA
ATOM     12  H   UNL     1       5.655  -3.314  -0.585  1.00  0.00    +0.000 HD
ENDBRANCH   3  11
BRANCH   4  13
ATOM     13  O   UNL     1       2.107  -2.104  -1.140  1.00  0.00    +0.000 OA
ATOM     14  H   UNL     1       2.412  -2.767  -1.774  1.00  0.00    +0.000 HD
ENDBRANCH   4  13
TORSDOF 4
ENDMDL
MODEL 6
REMARK VINA RESULT:    -5.346      1.057      3.971
REMARK INTER + INTRA:          -5.971
REMARK INTER:                  -5.971
REMARK INTRA:                   0.000
REMARK UNBOUND:                 0.000
REMARK  Name = XYP
REMARK  4 active torsions:
REMARK  status: ('A' for Active; 'I' for Inactive)
REMARK    1  A    between atoms: O_1  and  C_2
REMARK    2  A    between atoms: C_3  and  O_7
REMARK    3  A    between atoms: C_4  and  O_8
REMARK    4  A    between atoms: C_5  and  O_9
REMARK                            x       y       z     vdW  Elec       q    Type
REMARK                         _______ _______ _______ _____ _____    ______ ____
ROOT
ATOM      1  C   UNL     1       2.579  -1.646   2.206  1.00  0.00    +0.000 C 
ATOM      2  C   UNL     1       2.278  -1.805   0.715  1.00  0.00    +0.000 C 
ATOM      3  C   UNL     1       3.468  -2.488   0.033  1.00  0.00    +0.000 C 
ATOM      4  C   UNL     1       4.741  -1.702   0.364  1.00  0.00    +0.000 C 
ATOM      5  C   UNL     1       4.856  -1.551   1.882  1.00  0.00    +0.000 C 
ATOM      6  O   UNL     1       3.734  -0.828   2.382  1.00  0.00    +0.000 OA
ENDROOT
BRANCH   1   7
ATOM      7  O   UNL     1       1.462  -1.036   2.854  1.00  0.00    +0.000 OA
ATOM      8  H   UNL     1       0.719  -1.086   2.238  1.00  0.00    +0.000 HD
ENDBRANCH   1   7
BRANCH   2   9
ATOM      9  O   UNL     1       1.105  -2.601   0.546  1.00  0.00    +0.000 OA
ATOM     10  H   UNL     1       0.684  -2.667   1.414  1.00  0.00    +0.000 HD
ENDBRANCH   2   9
BRANCH   3  11
ATOM     11  O   UNL     1       3.263  -2.509  -1.381  1.00  0.00    +0.000 OA
ATOM     12  H   UNL     1       3.754  -3.268  -1.723  1.00  0.00    +0.000 HD
ENDBRANCH   3  11
BRANCH   4  13
ATOM     13  O   UNL     1       5.881  -2.405  -0.135  1.00  0.00    +0.000 OA
ATOM     14  H   UNL     1       6.366  -2.733   0.633  1.00  0.00    +0.000 HD
ENDBRANCH   4  13
TORSDOF 4
ENDMDL
MODEL 7
REMARK VINA RESULT:    -5.315      1.209      2.726
REMARK INTER + INTRA:          -5.937
REMARK INTER:                  -5.937
REMARK INTRA:                   0.000
REMARK UNBOUND:                 0.000
REMARK  Name = XYP
REMARK  4 active torsions:
REMARK  status: ('A' for Active; 'I' for Inactive)
REMARK    1  A    between atoms: O_1  and  C_2
REMARK    2  A    between atoms: C_3  and  O_7
REMARK    3  A    between atoms: C_4  and  O_8
REMARK    4  A    between atoms: C_5  and  O_9
REMARK                            x       y       z     vdW  Elec       q    Type
REMARK                         _______ _______ _______ _____ _____    ______ ____
ROOT
ATOM      1  C   UNL     1       3.718  -2.102  -0.255  1.00  0.00    +0.000 C 
ATOM      2  C   UNL     1       2.750  -2.603   0.819  1.00  0.00    +0.000 C 
ATOM      3  C   UNL     1       3.034  -1.868   2.133  1.00  0.00    +0.000 C 
ATOM      4  C   UNL     1       4.521  -2.020   2.470  1.00  0.00    +0.000 C 
ATOM      5  C   UNL     1       5.355  -1.563   1.271  1.00  0.00    +0.000 C 
ATOM      6  O   UNL     1       5.061  -2.377   0.139  1.00  0.00    +0.000 OA
ENDROOT
BRANCH   1   7
ATOM      7  O   UNL     1       3.440  -2.762  -1.490  1.00  0.00    +0.000 OA
ATOM      8  H   UNL     1       2.479  -2.818  -1.568  1.00  0.00    +0.000 HD
ENDBRANCH   1   7
BRANCH   2   9
ATOM      9  O   UNL     1       1.406  -2.350   0.407  1.00  0.00    +0.000 OA
ATOM     10  H   UNL     1       1.077  -1.624   0.956  1.00  0.00    +0.000 HD
ENDBRANCH   2   9
BRANCH   3  11
ATOM     11  O   UNL     1       2.239  -2.429   3.178  1.00  0.00    +0.000 OA
ATOM     12  H   UNL     1       2.817  -2.532   3.946  1.00  0.00    +0.000 HD
ENDBRANCH   3  11
BRANCH   4  13
ATOM     13  O   UNL     1       4.839  -1.217   3.608  1.00  0.00    +0.000 OA
ATOM     14  H   UNL     1       4.364  -0.382   3.504  1.00  0.00    +0.000 HD
ENDBRANCH   4  13
TORSDOF 4
ENDMDL
MODEL 8
REMARK VINA RESULT:    -5.238      1.119      2.533
REMARK INTER + INTRA:          -5.851
REMARK INTER:                  -5.851
REMARK INTRA:                   0.000
REMARK UNBOUND:                 0.000
REMARK  Name = XYP
REMARK  4 active torsions:
REMARK  status: ('A' for Active; 'I' for Inactive)
REMARK    1  A    between atoms: O_1  and  C_2
REMARK    2  A    between atoms: C_3  and  O_7
REMARK    3  A    between atoms: C_4  and  O_8
REMARK    4  A    between atoms: C_5  and  O_9
REMARK                            x       y       z     vdW  Elec       q    Type
REMARK                         _______ _______ _______ _____ _____    ______ ____
ROOT
ATOM      1  C   UNL     1       4.777  -1.692   0.371  1.00  0.00    +0.000 C 
ATOM      2  C   UNL     1       3.550  -2.536   0.022  1.00  0.00    +0.000 C 
ATOM      3  C   UNL     1       2.313  -1.919   0.682  1.00  0.00    +0.000 C 
ATOM      4  C   UNL     1       2.588  -1.752   2.181  1.00  0.00    +0.000 C 
ATOM      5  C   UNL     1       3.889  -0.968   2.367  1.00  0.00    +0.000 C 
ATOM      6  O   UNL     1       4.973  -1.686   1.784  1.00  0.00    +0.000 OA
ENDROOT
BRANCH   1   7
ATOM      7  O   UNL     1       5.930  -2.246  -0.266  1.00  0.00    +0.000 OA
ATOM      8  H   UNL     1       5.942  -1.904  -1.169  1.00  0.00    +0.000 HD
ENDBRANCH   1   7
BRANCH   2   9
ATOM      9  O   UNL     1       3.375  -2.562  -1.396  1.00  0.00    +0.000 OA
ATOM     10  H   UNL     1       4.242  -2.385  -1.788  1.00  0.00    +0.000 HD
ENDBRANCH   2   9
BRANCH   3  11
ATOM     11  O   UNL     1       1.187  -2.775   0.487  1.00  0.00    +0.000 OA
ATOM     12  H   UNL     1       0.440  -2.208   0.254  1.00  0.00    +0.000 HD
ENDBRANCH   3  11
BRANCH   4  13
ATOM     13  O   UNL     1       1.508  -1.041   2.789  1.00  0.00    +0.000 OA
ATOM     14  H   UNL     1       1.034  -1.674   3.344  1.00  0.00    +0.000 HD
ENDBRANCH   4  13
TORSDOF 4
ENDMDL
MODEL 9
REMARK VINA RESULT:    -5.065      1.281      2.854
REMARK INTER + INTRA:          -5.658
REMARK INTER:                  -5.658
REMARK INTRA:                   0.000
REMARK UNBOUND:                 0.000
REMARK  Name = XYP
REMARK  4 active torsions:
REMARK  status: ('A' for Active; 'I' for Inactive)
REMARK    1  A    between atoms: O_1  and  C_2
REMARK    2  A    between atoms: C_3  and  O_7
REMARK    3  A    between atoms: C_4  and  O_8
REMARK    4  A    between atoms: C_5  and  O_9
REMARK                            x       y       z     vdW  Elec       q    Type
REMARK                         _______ _______ _______ _____ _____    ______ ____
ROOT
ATOM      1  C   UNL     1       2.193  -2.713   0.891  1.00  0.00    +0.000 C 
ATOM      2  C   UNL     1       3.134  -1.801   0.101  1.00  0.00    +0.000 C 
ATOM      3  C   UNL     1       4.504  -1.779   0.787  1.00  0.00    +0.000 C 
ATOM      4  C   UNL     1       4.310  -1.403   2.260  1.00  0.00    +0.000 C 
ATOM      5  C   UNL     1       3.279  -2.345   2.886  1.00  0.00    +0.000 C 
ATOM      6  O   UNL     1       2.030  -2.209   2.215  1.00  0.00    +0.000 OA
ENDROOT
BRANCH   1   7
ATOM      7  O   UNL     1       0.922  -2.761   0.240  1.00  0.00    +0.000 OA
ATOM      8  H   UNL     1       0.656  -3.689   0.212  1.00  0.00    +0.000 HD
ENDBRANCH   1   7
BRANCH   2   9
ATOM      9  O   UNL     1       3.272  -2.295  -1.232  1.00  0.00    +0.000 OA
ATOM     10  H   UNL     1       3.664  -3.177  -1.165  1.00  0.00    +0.000 HD
ENDBRANCH   2   9
BRANCH   3  11
ATOM     11  O   UNL     1       5.346  -0.820   0.147  1.00  0.00    +0.000 OA
ATOM     12  H   UNL     1       5.149   0.038   0.547  1.00  0.00    +0.000 HD
ENDBRANCH   3  11
BRANCH   4  13
ATOM     13  O   UNL     1       5.553  -1.524   2.953  1.00  0.00    +0.000 OA
ATOM     14  H   UNL     1       5.609  -2.435   3.272  1.00  0.00    +0.000 HD
ENDBRANCH   4  13
TORSDOF 4
ENDMDL
