MODEL 1
REMARK VINA RESULT:    -5.764      0.000      0.000
REMARK INTER + INTRA:          -6.438
REMARK INTER:                  -6.438
REMARK INTRA:                   0.000
REMARK UNBOUND:                 0.000
REMARK  Name = PAV
REMARK  5 active torsions:
REMARK  status: ('A' for Active; 'I' for Inactive)
REMARK    1  A    between atoms: O_1  and  C_2
REMARK    2  A    between atoms: C_2  and  C_3
REMARK    3  A    between atoms: C_6  and  O_7
REMARK    4  A    between atoms: C_8  and  O_9
REMARK    5  A    between atoms: C_8  and  O_10
REMARK                            x       y       z     vdW  Elec       q    Type
REMARK                         _______ _______ _______ _____ _____    ______ ____
ROOT
ATOM      1  C   UNL     1       3.250  -1.987   2.059  1.00  0.00    +0.000 C 
ATOM      2  C   UNL     1       2.419  -2.974   2.879  1.00  0.00    +0.000 C 
ATOM      3  O   UNL     1       4.643  -2.136   2.380  1.00  0.00    +0.000 OA
ATOM      4  C   UNL     1       5.385  -1.877   1.169  1.00  0.00    +0.000 C 
ATOM      5  C   UNL     1       4.534  -2.564   0.071  1.00  0.00    +0.000 C 
ATOM      6  C   UNL     1       3.089  -2.283   0.557  1.00  0.00    +0.000 C 
ENDROOT
BRANCH   1   7
ATOM      7  O   UNL     1       2.829  -0.649   2.338  1.00  0.00    +0.000 OA
ATOM      8  H   UNL     1       1.914  -0.575   2.033  1.00  0.00    +0.000 HD
ENDBRANCH   1   7
BRANCH   5   9
ATOM      9  O   UNL     1       4.768  -1.964  -1.205  1.00  0.00    +0.000 OA
ATOM     10  H   UNL     1       5.717  -1.793  -1.264  1.00  0.00    +0.000 HD
ENDBRANCH   5   9
BRANCH   6  11
ATOM     11  O   UNL     1       2.264  -3.434   0.362  1.00  0.00    +0.000 OA
ATOM     12  H   UNL     1       2.528  -4.083   1.029  1.00  0.00    +0.000 HD
ENDBRANCH   6  11
BRANCH   6  13
ATOM     13  O   UNL     1       2.542  -1.154  -0.125  1.00  0.00    +0.000 OA
ATOM     14  H   UNL     1       1.751  -0.888   0.364  1.00  0.00    +0.000 HD
ENDBRANCH   6  13
TORSDOF 4
ENDMDL
MODEL 2
REMARK VINA RESULT:    -5.371      1.128      3.318
REMARK INTER + INTRA:          -5.999
REMARK INTER:                  -5.999
REMARK INTRA:                   0.000
REMARK UNBOUND:                 0.000
REMARK  Name = PAV
REMARK  5 active torsions:
REMARK  status: ('A' for Active; 'I' for Inactive)
REMARK    1  A    between atoms: O_1  and  C_2
REMARK    2  A    between atoms: C_2  and  C_3
REMARK    3  A    between atoms: C_6  and  O_7
REMARK    4  A    between atoms: C_8  and  O_9
REMARK    5  A    between atoms: C_8  and  O_10
REMARK                            x       y       z     vdW  Elec       q    Type
REMARK                         _______ _______ _______ _____ _____    ______ ____
ROOT
ATOM      1  C   UNL     1       3.786  -1.891   0.278  1.00  0.00    +0.000 C 
ATOM      2  C   UNL     1       5.214  -1.922  -0.268  1.00  0.00    +0.000 C 
ATOM      3  O   UNL     1       3.120  -3.127  -0.027  1.00  0.00    +0.000 OA
ATOM      4  C   UNL     1       2.228  -3.408   1.072  1.00  0.00    +0.000 C 
ATOM      5  C   UNL     1       3.054  -3.002   2.319  1.00  0.00    +0.000 C 
ATOM      6  C   UNL     1       3.812  -1.748   1.811  1.00  0.00    +0.000 C 
ENDROOT
BRANCH   1   7
ATOM      7  O   UNL     1       3.069  -0.797  -0.299  1.00  0.00    +0.000 OA
ATOM      8  H   UNL     1       2.888  -1.036  -1.218  1.00  0.00    +0.000 HD
ENDBRANCH   1   7
BRANCH   5   9
ATOM      9  O   UNL     1       2.195  -2.669   3.412  1.00  0.00    +0.000 OA
ATOM     10  H   UNL     1       1.300  -2.603   3.055  1.00  0.00    +0.000 HD
ENDBRANCH   5   9
BRANCH   6  11
ATOM     11  O   UNL     1       5.159  -1.752   2.289  1.00  0.00    +0.000 OA
ATOM     12  H   UNL     1       5.675  -2.286   1.668  1.00  0.00    +0.000 HD
ENDBRANCH   6  11
BRANCH   6  13
ATOM     13  O   UNL     1       3.139  -0.556   2.219  1.00  0.00    +0.000 OA
ATOM     14  H   UNL     1       2.515  -0.333   1.514  1.00  0.00    +0.000 HD
ENDBRANCH   6  13
TORSDOF 4
ENDMDL
MODEL 3
REMARK VINA RESULT:    -5.215      1.384      3.061
REMARK INTER + INTRA:          -5.825
REMARK INTER:                  -5.825
REMARK INTRA:                   0.000
REMARK UNBOUND:                 0.000
REMARK  Name = PAV
REMARK  5 active torsions:
REMARK  status: ('A' for Active; 'I' for Inactive)
REMARK    1  A    between atoms: O_1  and  C_2
REMARK    2  A    between atoms: C_2  and  C_3
REMARK    3  A    between atoms: C_6  and  O_7
REMARK    4  A    between atoms: C_8  and  O_9
REMARK    5  A    between atoms: C_8  and  O_10
REMARK                            x       y       z     vdW  Elec       q    Type
REMARK                         _______ _______ _______ _____ _____    ______ ____
ROOT
ATOM      1  C   UNL     1       3.951  -2.616   0.189  1.00  0.00    +0.000 C 
ATOM      2  C   UNL     1       4.661  -2.021  -1.028  1.00  0.00    +0.000 C 
ATOM      3  O   UNL     1       4.740  -2.398   1.370  1.00  0.00    +0.000 OA
ATOM      4  C   UNL     1       3.819  -2.199   2.462  1.00  0.00    +0.000 C 
ATOM      5  C   UNL     1       2.700  -1.328   1.836  1.00  0.00    +0.000 C 
ATOM      6  C   UNL     1       2.598  -1.913   0.403  1.00  0.00    +0.000 C 
ENDROOT
BRANCH   1   7
ATOM      7  O   UNL     1       3.745  -4.017  -0.007  1.00  0.00    +0.000 OA
ATOM      8  H   UNL     1       4.042  -4.220  -0.904  1.00  0.00    +0.000 HD
ENDBRANCH   1   7
BRANCH   5   9
ATOM      9  O   UNL     1       1.469  -1.495   2.543  1.00  0.00    +0.000 OA
ATOM     10  H   UNL     1       1.688  -1.890   3.396  1.00  0.00    +0.000 HD
ENDBRANCH   5   9
BRANCH   6  11
ATOM     11  O   UNL     1       2.423  -0.866  -0.553  1.00  0.00    +0.000 OA
ATOM     12  H   UNL     1       1.697  -0.312  -0.232  1.00  0.00    +0.000 HD
ENDBRANCH   6  11
BRANCH   6  13
ATOM     13  O   UNL     1       1.523  -2.851   0.321  1.00  0.00    +0.000 OA
ATOM     14  H   UNL     1       1.885  -3.713   0.570  1.00  0.00    +0.000 HD
ENDBRANCH   6  13
TORSDOF 4
ENDMDL
MODEL 4
REMARK VINA RESULT:    -5.010      1.437      2.298
REMARK INTER + INTRA:          -5.596
REMARK INTER:                  -5.596
REMARK INTRA:                   0.000
REMARK UNBOUND:                 0.000
REMARK  Name = PAV
REMARK  5 active torsions:
REMARK  status: ('A' for Active; 'I' for Inactive)
REMARK    1  A    between atoms: O_1  and  C_2
REMARK    2  A    between atoms: C_2  and  C_3
REMARK    3  A    between atoms: C_6  and  O_7
REMARK    4  A    between atoms: C_8  and  O_9
REMARK    5  A    between atoms: C_8  and  O_10
REMARK                            x       y       z     vdW  Elec       q    Type
REMARK                         _______ _______ _______ _____ _____    ______ ____
ROOT
ATOM      1  C   UNL     1       4.180  -1.511   2.402  1.00  0.00    +0.000 C 
ATOM      2  C   UNL     1       4.832  -1.722   3.769  1.00  0.00    +0.000 C 
ATOM      3  O   UNL     1       4.987  -2.113   1.377  1.00  0.00    +0.000 OA
ATOM      4  C   UNL     1       4.085  -2.610   0.367  1.00  0.00    +0.000 C 
ATOM      5  C   UNL     1       2.913  -3.202   1.190  1.00  0.00    +0.000 C 
ATOM      6  C   UNL     1       2.802  -2.197   2.365  1.00  0.00    +0.000 C 
ENDROOT
BRANCH   1   7
ATOM      7  O   UNL     1       4.033  -0.112   2.145  1.00  0.00    +0.000 OA
ATOM      8  H   UNL     1       3.432   0.234   2.820  1.00  0.00    +0.000 HD
ENDBRANCH   1   7
BRANCH   5   9
ATOM      9  O   UNL     1       1.709  -3.221   0.420  1.00  0.00    +0.000 OA
ATOM     10  H   UNL     1       1.231  -4.024   0.667  1.00  0.00    +0.000 HD
ENDBRANCH   5   9
BRANCH   6  11
ATOM     11  O   UNL     1       2.557  -2.888   3.592  1.00  0.00    +0.000 OA
ATOM     12  H   UNL     1       1.825  -3.500   3.427  1.00  0.00    +0.000 HD
ENDBRANCH   6  11
BRANCH   6  13
ATOM     13  O   UNL     1       1.769  -1.243   2.113  1.00  0.00    +0.000 OA
ATOM     14  H   UNL     1       2.207  -0.422   1.848  1.00  0.00    +0.000 HD
ENDBRANCH   6  13
TORSDOF 4
ENDMDL
MODEL 5
REMARK VINA RESULT:    -4.910      1.313      2.632
REMARK INTER + INTRA:          -5.484
REMARK INTER:                  -5.484
REMARK INTRA:                   0.000
REMARK UNBOUND:                 0.000
REMARK  Name = PAV
REMARK  5 active torsions:
REMARK  status: ('A' for Active; 'I' for Inactive)
REMARK    1  A    between atoms: O_1  and  C_2
REMARK    2  A    between atoms: C_2  and  C_3
REMARK    3  A    between atoms: C_6  and  O_7
REMARK    4  A    between atoms: C_8  and  O_9
REMARK    5  A    between atoms: C_8  and  O_10
REMARK                            x       y       z     vdW  Elec       q    Type
REMARK                         _______ _______ _______ _____ _____    ______ ____
ROOT
ATOM      1  C   UNL     1       2.521  -2.142   1.364  1.00  0.00    +0.000 C 
ATOM      2  C   UNL     1       1.419  -1.563   2.253  1.00  0.00    +0.000 C 
ATOM      3  O   UNL     1       2.184  -1.952  -0.019  1.00  0.00    +0.000 OA
ATOM      4  C   UNL     1       3.421  -1.731  -0.728  1.00  0.00    +0.000 C 
ATOM      5  C   UNL     1       4.232  -0.827   0.235  1.00  0.00    +0.000 C 
ATOM      6  C   UNL     1       3.847  -1.404   1.622  1.00  0.00    +0.000 C 
ENDROOT
BRANCH   1   7
ATOM      7  O   UNL     1       2.681  -3.536   1.638  1.00  0.00    +0.000 OA
ATOM      8  H   UNL     1       3.534  -3.798   1.264  1.00  0.00    +0.000 HD
ENDBRANCH   1   7
BRANCH   5   9
ATOM      9  O   UNL     1       5.636  -0.962  -0.001  1.00  0.00    +0.000 OA
ATOM     10  H   UNL     1       6.085  -0.639   0.791  1.00  0.00    +0.000 HD
ENDBRANCH   5   9
BRANCH   6  11
ATOM     11  O   UNL     1       3.654  -0.348   2.565  1.00  0.00    +0.000 OA
ATOM     12  H   UNL     1       4.408   0.251   2.473  1.00  0.00    +0.000 HD
ENDBRANCH   6  11
BRANCH   6  13
ATOM     13  O   UNL     1       4.849  -2.311   2.083  1.00  0.00    +0.000 OA
ATOM     14  H   UNL     1       4.401  -2.962   2.641  1.00  0.00    +0.000 HD
ENDBRANCH   6  13
TORSDOF 4
ENDMDL
MODEL 6
REMARK VINA RESULT:    -4.879      1.233      2.979
REMARK INTER + INTRA:          -5.450
REMARK INTER:                  -5.450
REMARK INTRA:                   0.000
REMARK UNBOUND:                 0.000
REMARK  Name = PAV
REMARK  5 active torsions:
REMARK  status: ('A' for Active; 'I' for Inactive)
REMARK    1  A    between atoms: O_1  and  C_2
REMARK    2  A    between atoms: C_2  and  C_3
REMARK    3  A    between atoms: C_6  and  O_7
REMARK    4  A    between atoms: C_8  and  O_9
REMARK    5  A    between atoms: C_8  and  O_10
REMARK                            x       y       z     vdW  Elec       q    Type
REMARK                         _______ _______ _______ _____ _____    ______ ____
ROOT
ATOM      1  C   UNL     1       3.036  -2.335   0.491  1.00  0.00    +0.000 C 
ATOM      2  C   UNL     1       2.011  -1.619  -0.390  1.00  0.00    +0.000 C 
ATOM      3  O   UNL     1       4.365  -1.939   0.115  1.00  0.00    +0.000 OA
ATOM      4  C   UNL     1       5.158  -1.926   1.320  1.00  0.00    +0.000 C 
ATOM      5  C   UNL     1       4.198  -1.321   2.376  1.00  0.00    +0.000 C 
ATOM      6  C   UNL     1       2.835  -1.933   1.964  1.00  0.00    +0.000 C 
ENDROOT
BRANCH   1   7
ATOM      7  O   UNL     1       2.892  -3.750   0.350  1.00  0.00    +0.000 OA
ATOM      8  H   UNL     1       2.403  -4.060   1.125  1.00  0.00    +0.000 HD
ENDBRANCH   1   7
BRANCH   5   9
ATOM      9  O   UNL     1       4.565  -1.735   3.694  1.00  0.00    +0.000 OA
ATOM     10  H   UNL     1       3.752  -2.013   4.136  1.00  0.00    +0.000 HD
ENDBRANCH   5   9
BRANCH   6  11
ATOM     11  O   UNL     1       1.795  -0.959   2.077  1.00  0.00    +0.000 OA
ATOM     12  H   UNL     1       1.172  -1.130   1.357  1.00  0.00    +0.000 HD
ENDBRANCH   6  11
BRANCH   6  13
ATOM     13  O   UNL     1       2.537  -3.078   2.763  1.00  0.00    +0.000 OA
ATOM     14  H   UNL     1       3.147  -3.777   2.489  1.00  0.00    +0.000 HD
ENDBRANCH   6  13
TORSDOF 4
ENDMDL
MODEL 7
REMARK VINA RESULT:    -4.730      1.482      2.459
REMARK INTER + INTRA:          -5.283
REMARK INTER:                  -5.283
REMARK INTRA:                   0.000
REMARK UNBOUND:                 0.000
REMARK  Name = PAV
REMARK  5 active torsions:
REMARK  status: ('A' for Active; 'I' for Inactive)
REMARK    1  A    between atoms: O_1  and  C_2
REMARK    2  A    between atoms: C_2  and  C_3
REMARK    3  A    between atoms: C_6  and  O_7
REMARK    4  A    between atoms: C_8  and  O_9
REMARK    5  A    between atoms: C_8  and  O_10
REMARK                            x       y       z     vdW  Elec       q    Type
REMARK                         _______ _______ _______ _____ _____    ______ ____
ROOT
ATOM      1  C   UNL     1       3.342  -2.166   2.054  1.00  0.00    +0.000 C 
ATOM      2  C   UNL     1       4.421  -1.650   3.007  1.00  0.00    +0.000 C 
ATOM      3  O   UNL     1       2.357  -1.143   1.831  1.00  0.00    +0.000 OA
ATOM      4  C   UNL     1       1.899  -1.288   0.470  1.00  0.00    +0.000 C 
ATOM      5  C   UNL     1       3.197  -1.612  -0.314  1.00  0.00    +0.000 C 
ATOM      6  C   UNL     1       3.966  -2.510   0.689  1.00  0.00    +0.000 C 
ENDROOT
BRANCH   1   7
ATOM      7  O   UNL     1       2.719  -3.326   2.609  1.00  0.00    +0.000 OA
ATOM      8  H   UNL     1       2.998  -4.079   2.069  1.00  0.00    +0.000 HD
ENDBRANCH   1   7
BRANCH   5   9
ATOM      9  O   UNL     1       2.901  -2.328  -1.515  1.00  0.00    +0.000 OA
ATOM     10  H   UNL     1       2.805  -1.670  -2.216  1.00  0.00    +0.000 HD
ENDBRANCH   5   9
BRANCH   6  11
ATOM     11  O   UNL     1       5.358  -2.187   0.683  1.00  0.00    +0.000 OA
ATOM     12  H   UNL     1       5.657  -2.217   1.603  1.00  0.00    +0.000 HD
ENDBRANCH   6  11
BRANCH   6  13
ATOM     13  O   UNL     1       3.770  -3.890   0.378  1.00  0.00    +0.000 OA
ATOM     14  H   UNL     1       3.587  -3.939  -0.571  1.00  0.00    +0.000 HD
ENDBRANCH   6  13
TORSDOF 4
ENDMDL
MODEL 8
REMARK VINA RESULT:    -4.687     12.588     13.663
REMARK INTER + INTRA:          -5.235
REMARK INTER:                  -5.235
REMARK INTRA:                   0.000
REMARK UNBOUND:                 0.000
REMARK  Name = PAV
REMARK  5 active torsions:
REMARK  status: ('A' for Active; 'I' for Inactive)
REMARK    1  A    between atoms: O_1  and  C_2
REMARK    2  A    between atoms: C_2  and  C_3
REMARK    3  A    between atoms: C_6  and  O_7
REMARK    4  A    between atoms: C_8  and  O_9
REMARK    5  A    between atoms: C_8  and  O_10
REMARK                            x       y       z     vdW  Elec       q    Type
REMARK                         _______ _______ _______ _____ _____    ______ ____
ROOT
ATOM      1  C   UNL     1      -8.181  -9.318   1.062  1.00  0.00    +0.000 C 
ATOM      2  C   UNL     1      -9.379  -8.561   1.638  1.00  0.00    +0.000 C 
ATOM      3  O   UNL     1      -8.559 -10.670   0.754  1.00  0.00    +0.000 OA
ATOM      4  C   UNL     1      -7.812 -11.061  -0.417  1.00  0.00    +0.000 C 
ATOM      5  C   UNL     1      -7.843  -9.790  -1.304  1.00  0.00    +0.000 C 
ATOM      6  C   UNL     1      -7.725  -8.657  -0.252  1.00  0.00    +0.000 C 
ENDROOT
BRANCH   1   7
ATOM      7  O   UNL     1      -7.107  -9.316   2.005  1.00  0.00    +0.000 OA
ATOM      8  H   UNL     1      -6.973 -10.234   2.278  1.00  0.00    +0.000 HD
ENDBRANCH   1   7
BRANCH   5   9
ATOM      9  O   UNL     1      -6.730  -9.769  -2.202  1.00  0.00    +0.000 OA
ATOM     10  H   UNL     1      -6.988 -10.281  -2.979  1.00  0.00    +0.000 HD
ENDBRANCH   5   9
BRANCH   6  11
ATOM     11  O   UNL     1      -8.590  -7.570  -0.589  1.00  0.00    +0.000 OA
ATOM     12  H   UNL     1      -8.674  -7.568  -1.553  1.00  0.00    +0.000 HD
ENDBRANCH   6  11
BRANCH   6  13
ATOM     13  O   UNL     1      -6.373  -8.208  -0.148  1.00  0.00    +0.000 OA
ATOM     14  H   UNL     1      -6.012  -8.595   0.661  1.00  0.00    +0.000 HD
ENDBRANCH   6  13
TORSDOF 4
ENDMDL
MODEL 9
REMARK VINA RESULT:    -4.586     12.033     13.656
REMARK INTER + INTRA:          -5.122
REMARK INTER:                  -5.122
REMARK INTRA:                   0.000
REMARK UNBOUND:                 0.000
REMARK  Name = PAV
REMARK  5 active torsions:
REMARK  status: ('A' for Active; 'I' for Inactive)
REMARK    1  A    between atoms: O_1  and  C_2
REMARK    2  A    between atoms: C_2  and  C_3
REMARK    3  A    between atoms: C_6  and  O_7
REMARK    4  A    between atoms: C_8  and  O_9
REMARK    5  A    between atoms: C_8  and  O_10
REMARK                            x       y       z     vdW  Elec       q    Type
REMARK                         _______ _______ _______ _____ _____    ______ ____
ROOT
ATOM      1  C   UNL     1      -7.885  -8.909   1.282  1.00  0.00    +0.000 C 
ATOM      2  C   UNL     1      -6.972  -8.033   2.142  1.00  0.00    +0.000 C 
ATOM      3  O   UNL     1      -9.197  -8.326   1.212  1.00  0.00    +0.000 OA
ATOM      4  C   UNL     1      -9.720  -8.624  -0.099  1.00  0.00    +0.000 C 
ATOM      5  C   UNL     1      -8.494  -8.436  -1.028  1.00  0.00    +0.000 C 
ATOM      6  C   UNL     1      -7.338  -8.987  -0.154  1.00  0.00    +0.000 C 
ENDROOT
BRANCH   1   7
ATOM      7  O   UNL     1      -7.966 -10.221   1.843  1.00  0.00    +0.000 OA
ATOM      8  H   UNL     1      -7.064 -10.570   1.871  1.00  0.00    +0.000 HD
ENDBRANCH   1   7
BRANCH   5   9
ATOM      9  O   UNL     1      -8.639  -9.204  -2.225  1.00  0.00    +0.000 OA
ATOM     10  H   UNL     1      -8.934 -10.084  -1.959  1.00  0.00    +0.000 HD
ENDBRANCH   5   9
BRANCH   6  11
ATOM     11  O   UNL     1      -6.175  -8.169  -0.290  1.00  0.00    +0.000 OA
ATOM     12  H   UNL     1      -6.326  -7.592  -1.052  1.00  0.00    +0.000 HD
ENDBRANCH   6  11
BRANCH   6  13
ATOM     13  O   UNL     1      -7.043 -10.339  -0.510  1.00  0.00    +0.000 OA
ATOM     14  H   UNL     1      -6.328 -10.631   0.073  1.00  0.00    +0.000 HD
ENDBRANCH   6  13
TORSDOF 4
ENDMDL
