MODEL 1
REMARK VINA RESULT:    -5.790      0.000      0.000
REMARK INTER + INTRA:          -7.891
REMARK INTER:                  -7.314
REMARK INTRA:                  -0.577
REMARK UNBOUND:                -0.577
REMARK  Name = GZL
REMARK  7 active torsions:
REMARK  status: ('A' for Active; 'I' for Inactive)
REMARK    1  A    between atoms: C_1  and  C_2
REMARK    2  A    between atoms: C_1  and  O_6
REMARK    3  A    between atoms: C_2  and  C_3
REMARK    4  A    between atoms: C_2  and  O_7
REMARK    5  A    between atoms: C_4  and  O_9
REMARK    6  A    between atoms: C_5  and  O_11
REMARK    7  A    between atoms: C_10  and  O_12
REMARK                            x       y       z     vdW  Elec       q    Type
REMARK                         _______ _______ _______ _____ _____    ______ ____
ROOT
ATOM      1  C   UNL     1       3.087  -2.766   0.760  1.00  0.00    +0.000 C 
ATOM      2  C   UNL     1       3.033  -1.517  -0.141  1.00  0.00    +0.000 C 
ATOM      3  C   UNL     1       4.498  -1.315  -0.600  1.00  0.00    +0.000 C 
ATOM      4  O   UNL     1       4.461  -3.180   0.833  1.00  0.00    +0.000 OA
ATOM      5  C   UNL     1       5.104  -2.724  -0.377  1.00  0.00    +0.000 C 
ENDROOT
BRANCH   2   6
ATOM      6  O   UNL     1       2.184  -1.750  -1.267  1.00  0.00    +0.000 OA
ATOM      7  H   UNL     1       1.247  -1.836  -1.043  1.00  0.00    +0.000 HD
ENDBRANCH   2   6
BRANCH   3   8
ATOM      8  O   UNL     1       5.156  -0.342   0.213  1.00  0.00    +0.000 OA
ATOM      9  H   UNL     1       5.446  -0.679   1.072  1.00  0.00    +0.000 HD
ENDBRANCH   3   8
BRANCH   5  10
ATOM     10  O   UNL     1       4.787  -3.588  -1.471  1.00  0.00    +0.000 OA
ATOM     11  H   UNL     1       4.484  -4.466  -1.205  1.00  0.00    +0.000 HD
ENDBRANCH   5  10
BRANCH   1  12
ATOM     12  C   UNL     1       2.573  -2.420   2.158  1.00  0.00    +0.000 C 
BRANCH  12  13
ATOM     13  O   UNL     1       1.694  -1.295   2.078  1.00  0.00    +0.000 OA
ATOM     14  H   UNL     1       1.941  -0.651   1.401  1.00  0.00    +0.000 HD
ENDBRANCH  12  13
BRANCH  12  15
ATOM     15  C   UNL     1       3.756  -2.078   3.066  1.00  0.00    +0.000 C 
BRANCH  15  16
ATOM     16  O   UNL     1       4.146  -0.719   2.850  1.00  0.00    +0.000 OA
ATOM     17  H   UNL     1       4.780  -0.603   2.130  1.00  0.00    +0.000 HD
ENDBRANCH  15  16
ENDBRANCH  12  15
ENDBRANCH   1  12
TORSDOF 7
ENDMDL
MODEL 2
REMARK VINA RESULT:    -5.682      1.366      3.732
REMARK INTER + INTRA:          -7.754
REMARK INTER:                  -7.065
REMARK INTRA:                  -0.690
REMARK UNBOUND:                -0.577
REMARK  Name = GZL
REMARK  7 active torsions:
REMARK  status: ('A' for Active; 'I' for Inactive)
REMARK    1  A    between atoms: C_1  and  C_2
REMARK    2  A    between atoms: C_1  and  O_6
REMARK    3  A    between atoms: C_2  and  C_3
REMARK    4  A    between atoms: C_2  and  O_7
REMARK    5  A    between atoms: C_4  and  O_9
REMARK    6  A    between atoms: C_5  and  O_11
REMARK    7  A    between atoms: C_10  and  O_12
REMARK                            x       y       z     vdW  Elec       q    Type
REMARK                         _______ _______ _______ _____ _____    ______ ____
ROOT
ATOM      1  C   UNL     1       4.453  -2.164   1.667  1.00  0.00    +0.000 C 
ATOM      2  C   UNL     1       3.580  -0.897   1.751  1.00  0.00    +0.000 C 
ATOM      3  C   UNL     1       2.128  -1.433   1.703  1.00  0.00    +0.000 C 
ATOM      4  O   UNL     1       3.566  -3.286   1.532  1.00  0.00    +0.000 OA
ATOM      5  C   UNL     1       2.312  -2.909   2.140  1.00  0.00    +0.000 C 
ENDROOT
BRANCH   2   6
ATOM      6  O   UNL     1       3.817  -0.207   2.980  1.00  0.00    +0.000 OA
ATOM      7  H   UNL     1       4.474  -0.632   3.549  1.00  0.00    +0.000 HD
ENDBRANCH   2   6
BRANCH   3   8
ATOM      8  O   UNL     1       1.601  -1.356   0.377  1.00  0.00    +0.000 OA
ATOM      9  H   UNL     1       0.806  -1.891   0.238  1.00  0.00    +0.000 HD
ENDBRANCH   3   8
BRANCH   5  10
ATOM     10  O   UNL     1       2.394  -3.006   3.564  1.00  0.00    +0.000 OA
ATOM     11  H   UNL     1       3.056  -3.636   3.878  1.00  0.00    +0.000 HD
ENDBRANCH   5  10
BRANCH   1  12
ATOM     12  C   UNL     1       5.375  -2.079   0.449  1.00  0.00    +0.000 C 
BRANCH  12  13
ATOM     13  O   UNL     1       5.403  -0.735  -0.035  1.00  0.00    +0.000 OA
ATOM     14  H   UNL     1       6.012  -0.595  -0.773  1.00  0.00    +0.000 HD
ENDBRANCH  12  13
BRANCH  12  15
ATOM     15  C   UNL     1       4.852  -3.005  -0.651  1.00  0.00    +0.000 C 
BRANCH  15  16
ATOM     16  O   UNL     1       3.692  -2.425  -1.251  1.00  0.00    +0.000 OA
ATOM     17  H   UNL     1       2.895  -2.966  -1.170  1.00  0.00    +0.000 HD
ENDBRANCH  15  16
ENDBRANCH  12  15
ENDBRANCH   1  12
TORSDOF 7
ENDMDL
MODEL 3
REMARK VINA RESULT:    -5.312      1.309      2.105
REMARK INTER + INTRA:          -7.286
REMARK INTER:                  -6.809
REMARK INTRA:                  -0.477
REMARK UNBOUND:                -0.577
REMARK  Name = GZL
REMARK  7 active torsions:
REMARK  status: ('A' for Active; 'I' for Inactive)
REMARK    1  A    between atoms: C_1  and  C_2
REMARK    2  A    between atoms: C_1  and  O_6
REMARK    3  A    between atoms: C_2  and  C_3
REMARK    4  A    between atoms: C_2  and  O_7
REMARK    5  A    between atoms: C_4  and  O_9
REMARK    6  A    between atoms: C_5  and  O_11
REMARK    7  A    between atoms: C_10  and  O_12
REMARK                            x       y       z     vdW  Elec       q    Type
REMARK                         _______ _______ _______ _____ _____    ______ ____
ROOT
ATOM      1  C   UNL     1       3.814  -2.920   0.996  1.00  0.00    +0.000 C 
ATOM      2  C   UNL     1       3.912  -2.885  -0.541  1.00  0.00    +0.000 C 
ATOM      3  C   UNL     1       4.432  -1.460  -0.856  1.00  0.00    +0.000 C 
ATOM      4  O   UNL     1       4.195  -1.621   1.478  1.00  0.00    +0.000 OA
ATOM      5  C   UNL     1       5.077  -1.046   0.491  1.00  0.00    +0.000 C 
ENDROOT
BRANCH   2   6
ATOM      6  O   UNL     1       4.838  -3.869  -1.006  1.00  0.00    +0.000 OA
ATOM      7  H   UNL     1       5.272  -3.639  -1.838  1.00  0.00    +0.000 HD
ENDBRANCH   2   6
BRANCH   3   8
ATOM      8  O   UNL     1       3.353  -0.588  -1.195  1.00  0.00    +0.000 OA
ATOM      9  H   UNL     1       3.139   0.058  -0.507  1.00  0.00    +0.000 HD
ENDBRANCH   3   8
BRANCH   5  10
ATOM     10  O   UNL     1       6.392  -1.595   0.610  1.00  0.00    +0.000 OA
ATOM     11  H   UNL     1       6.418  -2.464   1.033  1.00  0.00    +0.000 HD
ENDBRANCH   5  10
BRANCH   1  12
ATOM     12  C   UNL     1       2.378  -3.232   1.419  1.00  0.00    +0.000 C 
BRANCH  12  13
ATOM     13  O   UNL     1       1.470  -2.705   0.448  1.00  0.00    +0.000 OA
ATOM     14  H   UNL     1       0.615  -3.156   0.424  1.00  0.00    +0.000 HD
ENDBRANCH  12  13
BRANCH  12  15
ATOM     15  C   UNL     1       2.096  -2.591   2.779  1.00  0.00    +0.000 C 
BRANCH  15  16
ATOM     16  O   UNL     1       1.690  -1.234   2.592  1.00  0.00    +0.000 OA
ATOM     17  H   UNL     1       1.522  -0.756   3.416  1.00  0.00    +0.000 HD
ENDBRANCH  15  16
ENDBRANCH  12  15
ENDBRANCH   1  12
TORSDOF 7
ENDMDL
MODEL 4
REMARK VINA RESULT:    -5.235      1.364      1.669
REMARK INTER + INTRA:          -7.189
REMARK INTER:                  -6.917
REMARK INTRA:                  -0.272
REMARK UNBOUND:                -0.577
REMARK  Name = GZL
REMARK  7 active torsions:
REMARK  status: ('A' for Active; 'I' for Inactive)
REMARK    1  A    between atoms: C_1  and  C_2
REMARK    2  A    between atoms: C_1  and  O_6
REMARK    3  A    between atoms: C_2  and  C_3
REMARK    4  A    between atoms: C_2  and  O_7
REMARK    5  A    between atoms: C_4  and  O_9
REMARK    6  A    between atoms: C_5  and  O_11
REMARK    7  A    between atoms: C_10  and  O_12
REMARK                            x       y       z     vdW  Elec       q    Type
REMARK                         _______ _______ _______ _____ _____    ______ ____
ROOT
ATOM      1  C   UNL     1       4.089  -2.663   1.424  1.00  0.00    +0.000 C 
ATOM      2  C   UNL     1       2.812  -2.441   0.589  1.00  0.00    +0.000 C 
ATOM      3  C   UNL     1       3.339  -2.030  -0.808  1.00  0.00    +0.000 C 
ATOM      4  O   UNL     1       5.210  -2.353   0.580  1.00  0.00    +0.000 OA
ATOM      5  C   UNL     1       4.788  -2.579  -0.782  1.00  0.00    +0.000 C 
ENDROOT
BRANCH   2   6
ATOM      6  O   UNL     1       2.055  -3.650   0.503  1.00  0.00    +0.000 OA
ATOM      7  H   UNL     1       1.279  -3.588  -0.071  1.00  0.00    +0.000 HD
ENDBRANCH   2   6
BRANCH   3   8
ATOM      8  O   UNL     1       3.334  -0.610  -0.957  1.00  0.00    +0.000 OA
ATOM      9  H   UNL     1       3.976  -0.279  -1.600  1.00  0.00    +0.000 HD
ENDBRANCH   3   8
BRANCH   5  10
ATOM     10  O   UNL     1       4.804  -3.975  -1.089  1.00  0.00    +0.000 OA
ATOM     11  H   UNL     1       5.556  -4.452  -0.712  1.00  0.00    +0.000 HD
ENDBRANCH   5  10
BRANCH   1  12
ATOM     12  C   UNL     1       4.081  -1.737   2.641  1.00  0.00    +0.000 C 
BRANCH  12  13
ATOM     13  O   UNL     1       3.571  -0.456   2.263  1.00  0.00    +0.000 OA
ATOM     14  H   UNL     1       3.942   0.280   2.770  1.00  0.00    +0.000 HD
ENDBRANCH  12  13
BRANCH  12  15
ATOM     15  C   UNL     1       5.508  -1.581   3.171  1.00  0.00    +0.000 C 
BRANCH  15  16
ATOM     16  O   UNL     1       5.466  -1.101   4.517  1.00  0.00    +0.000 OA
ATOM     17  H   UNL     1       4.996  -1.684   5.128  1.00  0.00    +0.000 HD
ENDBRANCH  15  16
ENDBRANCH  12  15
ENDBRANCH   1  12
TORSDOF 7
ENDMDL
MODEL 5
REMARK VINA RESULT:    -5.050      1.477      2.774
REMARK INTER + INTRA:          -6.955
REMARK INTER:                  -6.827
REMARK INTRA:                  -0.128
REMARK UNBOUND:                -0.577
REMARK  Name = GZL
REMARK  7 active torsions:
REMARK  status: ('A' for Active; 'I' for Inactive)
REMARK    1  A    between atoms: C_1  and  C_2
REMARK    2  A    between atoms: C_1  and  O_6
REMARK    3  A    between atoms: C_2  and  C_3
REMARK    4  A    between atoms: C_2  and  O_7
REMARK    5  A    between atoms: C_4  and  O_9
REMARK    6  A    between atoms: C_5  and  O_11
REMARK    7  A    between atoms: C_10  and  O_12
REMARK                            x       y       z     vdW  Elec       q    Type
REMARK                         _______ _______ _______ _____ _____    ______ ____
ROOT
ATOM      1  C   UNL     1       3.658  -1.080   1.403  1.00  0.00    +0.000 C 
ATOM      2  C   UNL     1       4.804  -1.939   0.833  1.00  0.00    +0.000 C 
ATOM      3  C   UNL     1       4.184  -2.622  -0.411  1.00  0.00    +0.000 C 
ATOM      4  O   UNL     1       2.503  -1.309   0.580  1.00  0.00    +0.000 OA
ATOM      5  C   UNL     1       2.984  -1.693  -0.726  1.00  0.00    +0.000 C 
ENDROOT
BRANCH   2   6
ATOM      6  O   UNL     1       5.907  -1.114   0.453  1.00  0.00    +0.000 OA
ATOM      7  H   UNL     1       6.756  -1.401   0.814  1.00  0.00    +0.000 HD
ENDBRANCH   2   6
BRANCH   3   8
ATOM      8  O   UNL     1       3.738  -3.942  -0.098  1.00  0.00    +0.000 OA
ATOM      9  H   UNL     1       4.082  -4.624  -0.691  1.00  0.00    +0.000 HD
ENDBRANCH   3   8
BRANCH   5  10
ATOM     10  O   UNL     1       3.415  -0.545  -1.461  1.00  0.00    +0.000 OA
ATOM     11  H   UNL     1       4.030  -0.746  -2.179  1.00  0.00    +0.000 HD
ENDBRANCH   5  10
BRANCH   1  12
ATOM     12  C   UNL     1       3.363  -1.497   2.844  1.00  0.00    +0.000 C 
BRANCH  12  13
ATOM     13  O   UNL     1       4.593  -1.706   3.542  1.00  0.00    +0.000 OA
ATOM     14  H   UNL     1       4.505  -1.697   4.505  1.00  0.00    +0.000 HD
ENDBRANCH  12  13
BRANCH  12  15
ATOM     15  C   UNL     1       2.552  -2.795   2.843  1.00  0.00    +0.000 C 
BRANCH  15  16
ATOM     16  O   UNL     1       2.153  -3.109   4.179  1.00  0.00    +0.000 OA
ATOM     17  H   UNL     1       2.533  -2.526   4.850  1.00  0.00    +0.000 HD
ENDBRANCH  15  16
ENDBRANCH  12  15
ENDBRANCH   1  12
TORSDOF 7
ENDMDL
MODEL 6
REMARK VINA RESULT:    -4.612      1.203      3.761
REMARK INTER + INTRA:          -6.403
REMARK INTER:                  -6.316
REMARK INTRA:                  -0.087
REMARK UNBOUND:                -0.577
REMARK  Name = GZL
REMARK  7 active torsions:
REMARK  status: ('A' for Active; 'I' for Inactive)
REMARK    1  A    between atoms: C_1  and  C_2
REMARK    2  A    between atoms: C_1  and  O_6
REMARK    3  A    between atoms: C_2  and  C_3
REMARK    4  A    between atoms: C_2  and  O_7
REMARK    5  A    between atoms: C_4  and  O_9
REMARK    6  A    between atoms: C_5  and  O_11
REMARK    7  A    between atoms: C_10  and  O_12
REMARK                            x       y       z     vdW  Elec       q    Type
REMARK                         _______ _______ _______ _____ _____    ______ ____
ROOT
ATOM      1  C   UNL     1       4.012  -1.518   0.854  1.00  0.00    +0.000 C 
ATOM      2  C   UNL     1       2.869  -1.949  -0.086  1.00  0.00    +0.000 C 
ATOM      3  C   UNL     1       1.950  -2.819   0.808  1.00  0.00    +0.000 C 
ATOM      4  O   UNL     1       3.771  -2.134   2.129  1.00  0.00    +0.000 OA
ATOM      5  C   UNL     1       2.348  -2.352   2.231  1.00  0.00    +0.000 C 
ENDROOT
BRANCH   2   6
ATOM      6  O   UNL     1       2.160  -0.806  -0.569  1.00  0.00    +0.000 OA
ATOM      7  H   UNL     1       1.421  -1.020  -1.154  1.00  0.00    +0.000 HD
ENDBRANCH   2   6
BRANCH   3   8
ATOM      8  O   UNL     1       2.232  -4.207   0.629  1.00  0.00    +0.000 OA
ATOM      9  H   UNL     1       3.052  -4.383   0.148  1.00  0.00    +0.000 HD
ENDBRANCH   3   8
BRANCH   5  10
ATOM     10  O   UNL     1       1.676  -1.137   2.570  1.00  0.00    +0.000 OA
ATOM     11  H   UNL     1       2.221  -0.510   3.064  1.00  0.00    +0.000 HD
ENDBRANCH   5  10
BRANCH   1  12
ATOM     12  C   UNL     1       5.353  -1.990   0.291  1.00  0.00    +0.000 C 
BRANCH  12  13
ATOM     13  O   UNL     1       6.259  -0.886   0.228  1.00  0.00    +0.000 OA
ATOM     14  H   UNL     1       6.329  -0.387   1.054  1.00  0.00    +0.000 HD
ENDBRANCH  12  13
BRANCH  12  15
ATOM     15  C   UNL     1       5.145  -2.558  -1.114  1.00  0.00    +0.000 C 
BRANCH  15  16
ATOM     16  O   UNL     1       4.886  -3.962  -1.027  1.00  0.00    +0.000 OA
ATOM     17  H   UNL     1       5.601  -4.469  -0.619  1.00  0.00    +0.000 HD
ENDBRANCH  15  16
ENDBRANCH  12  15
ENDBRANCH   1  12
TORSDOF 7
ENDMDL
MODEL 7
REMARK VINA RESULT:    -4.563     12.507     13.631
REMARK INTER + INTRA:          -6.340
REMARK INTER:                  -6.063
REMARK INTRA:                  -0.278
REMARK UNBOUND:                -0.577
REMARK  Name = GZL
REMARK  7 active torsions:
REMARK  status: ('A' for Active; 'I' for Inactive)
REMARK    1  A    between atoms: C_1  and  C_2
REMARK    2  A    between atoms: C_1  and  O_6
REMARK    3  A    between atoms: C_2  and  C_3
REMARK    4  A    between atoms: C_2  and  O_7
REMARK    5  A    between atoms: C_4  and  O_9
REMARK    6  A    between atoms: C_5  and  O_11
REMARK    7  A    between atoms: C_10  and  O_12
REMARK                            x       y       z     vdW  Elec       q    Type
REMARK                         _______ _______ _______ _____ _____    ______ ____
ROOT
ATOM      1  C   UNL     1      -8.263  -8.784   0.449  1.00  0.00    +0.000 C 
ATOM      2  C   UNL     1      -8.053  -8.705  -1.076  1.00  0.00    +0.000 C 
ATOM      3  C   UNL     1      -7.665 -10.148  -1.481  1.00  0.00    +0.000 C 
ATOM      4  O   UNL     1      -7.967 -10.132   0.851  1.00  0.00    +0.000 OA
ATOM      5  C   UNL     1      -8.214 -10.977  -0.293  1.00  0.00    +0.000 C 
ENDROOT
BRANCH   2   6
ATOM      6  O   UNL     1      -9.263  -8.310  -1.726  1.00  0.00    +0.000 OA
ATOM      7  H   UNL     1      -9.653  -7.498  -1.375  1.00  0.00    +0.000 HD
ENDBRANCH   2   6
BRANCH   3   8
ATOM      8  O   UNL     1      -6.247 -10.283  -1.586  1.00  0.00    +0.000 OA
ATOM      9  H   UNL     1      -5.797  -9.485  -1.895  1.00  0.00    +0.000 HD
ENDBRANCH   3   8
BRANCH   5  10
ATOM     10  O   UNL     1      -9.615 -11.216  -0.449  1.00  0.00    +0.000 OA
ATOM     11  H   UNL     1      -9.830 -12.103  -0.769  1.00  0.00    +0.000 HD
ENDBRANCH   5  10
BRANCH   1  12
ATOM     12  C   UNL     1      -7.318  -7.811   1.155  1.00  0.00    +0.000 C 
BRANCH  12  13
ATOM     13  O   UNL     1      -6.036  -7.848   0.523  1.00  0.00    +0.000 OA
ATOM     14  H   UNL     1      -6.074  -7.948  -0.438  1.00  0.00    +0.000 HD
ENDBRANCH  12  13
BRANCH  12  15
ATOM     15  C   UNL     1      -7.173  -8.216   2.624  1.00  0.00    +0.000 C 
BRANCH  15  16
ATOM     16  O   UNL     1      -6.032  -7.565   3.187  1.00  0.00    +0.000 OA
ATOM     17  H   UNL     1      -5.619  -8.053   3.912  1.00  0.00    +0.000 HD
ENDBRANCH  15  16
ENDBRANCH  12  15
ENDBRANCH   1  12
TORSDOF 7
ENDMDL
MODEL 8
REMARK VINA RESULT:    -4.462      9.059     10.336
REMARK INTER + INTRA:          -6.213
REMARK INTER:                  -5.521
REMARK INTRA:                  -0.691
REMARK UNBOUND:                -0.577
REMARK  Name = GZL
REMARK  7 active torsions:
REMARK  status: ('A' for Active; 'I' for Inactive)
REMARK    1  A    between atoms: C_1  and  C_2
REMARK    2  A    between atoms: C_1  and  O_6
REMARK    3  A    between atoms: C_2  and  C_3
REMARK    4  A    between atoms: C_2  and  O_7
REMARK    5  A    between atoms: C_4  and  O_9
REMARK    6  A    between atoms: C_5  and  O_11
REMARK    7  A    between atoms: C_10  and  O_12
REMARK                            x       y       z     vdW  Elec       q    Type
REMARK                         _______ _______ _______ _____ _____    ______ ____
ROOT
ATOM      1  C   UNL     1      13.411   1.497   4.029  1.00  0.00    +0.000 C 
ATOM      2  C   UNL     1      12.578   0.258   4.412  1.00  0.00    +0.000 C 
ATOM      3  C   UNL     1      12.464  -0.545   3.093  1.00  0.00    +0.000 C 
ATOM      4  O   UNL     1      13.684   1.409   2.621  1.00  0.00    +0.000 OA
ATOM      5  C   UNL     1      13.656   0.009   2.272  1.00  0.00    +0.000 C 
ENDROOT
BRANCH   2   6
ATOM      6  O   UNL     1      13.255  -0.511   5.408  1.00  0.00    +0.000 OA
ATOM      7  H   UNL     1      13.060  -1.457   5.375  1.00  0.00    +0.000 HD
ENDBRANCH   2   6
BRANCH   3   8
ATOM      8  O   UNL     1      11.224  -0.274   2.438  1.00  0.00    +0.000 OA
ATOM      9  H   UNL     1      10.912   0.635   2.546  1.00  0.00    +0.000 HD
ENDBRANCH   3   8
BRANCH   5  10
ATOM     10  O   UNL     1      14.875  -0.631   2.659  1.00  0.00    +0.000 OA
ATOM     11  H   UNL     1      15.382  -0.143   3.320  1.00  0.00    +0.000 HD
ENDBRANCH   5  10
BRANCH   1  12
ATOM     12  C   UNL     1      12.617   2.769   4.327  1.00  0.00    +0.000 C 
BRANCH  12  13
ATOM     13  O   UNL     1      11.368   2.422   4.930  1.00  0.00    +0.000 OA
ATOM     14  H   UNL     1      10.752   3.163   5.012  1.00  0.00    +0.000 HD
ENDBRANCH  12  13
BRANCH  12  15
ATOM     15  C   UNL     1      12.360   3.527   3.023  1.00  0.00    +0.000 C 
BRANCH  15  16
ATOM     16  O   UNL     1      11.406   2.810   2.236  1.00  0.00    +0.000 OA
ATOM     17  H   UNL     1      11.142   1.961   2.615  1.00  0.00    +0.000 HD
ENDBRANCH  15  16
ENDBRANCH  12  15
ENDBRANCH   1  12
TORSDOF 7
ENDMDL
MODEL 9
REMARK VINA RESULT:    -4.172      9.138     10.394
REMARK INTER + INTRA:          -5.847
REMARK INTER:                  -5.125
REMARK INTRA:                  -0.722
REMARK UNBOUND:                -0.577
REMARK  Name = GZL
REMARK  7 active torsions:
REMARK  status: ('A' for Active; 'I' for Inactive)
REMARK    1  A    between atoms: C_1  and  C_2
REMARK    2  A    between atoms: C_1  and  O_6
REMARK    3  A    between atoms: C_2  and  C_3
REMARK    4  A    between atoms: C_2  and  O_7
REMARK    5  A    between atoms: C_4  and  O_9
REMARK    6  A    between atoms: C_5  and  O_11
REMARK    7  A    between atoms: C_10  and  O_12
REMARK                            x       y       z     vdW  Elec       q    Type
REMARK                         _______ _______ _______ _____ _____    ______ ____
ROOT
ATOM      1  C   UNL     1      12.445   1.392   3.590  1.00  0.00    +0.000 C 
ATOM      2  C   UNL     1      12.173   0.335   2.502  1.00  0.00    +0.000 C 
ATOM      3  C   UNL     1      13.550  -0.334   2.269  1.00  0.00    +0.000 C 
ATOM      4  O   UNL     1      13.850   1.344   3.890  1.00  0.00    +0.000 OA
ATOM      5  C   UNL     1      14.302   0.008   3.581  1.00  0.00    +0.000 C 
ENDROOT
BRANCH   2   6
ATOM      6  O   UNL     1      11.222  -0.626   2.965  1.00  0.00    +0.000 OA
ATOM      7  H   UNL     1      10.593  -0.277   3.612  1.00  0.00    +0.000 HD
ENDBRANCH   2   6
BRANCH   3   8
ATOM      8  O   UNL     1      14.210   0.238   1.139  1.00  0.00    +0.000 OA
ATOM      9  H   UNL     1      14.628  -0.412   0.558  1.00  0.00    +0.000 HD
ENDBRANCH   3   8
BRANCH   5  10
ATOM     10  O   UNL     1      13.937  -0.901   4.623  1.00  0.00    +0.000 OA
ATOM     11  H   UNL     1      13.451  -0.490   5.350  1.00  0.00    +0.000 HD
ENDBRANCH   5  10
BRANCH   1  12
ATOM     12  C   UNL     1      12.071   2.781   3.071  1.00  0.00    +0.000 C 
BRANCH  12  13
ATOM     13  O   UNL     1      11.283   2.650   1.886  1.00  0.00    +0.000 OA
ATOM     14  H   UNL     1      10.601   3.330   1.790  1.00  0.00    +0.000 HD
ENDBRANCH  12  13
BRANCH  12  15
ATOM     15  C   UNL     1      13.345   3.566   2.752  1.00  0.00    +0.000 C 
BRANCH  15  16
ATOM     16  O   UNL     1      13.843   3.166   1.473  1.00  0.00    +0.000 OA
ATOM     17  H   UNL     1      14.804   3.065   1.440  1.00  0.00    +0.000 HD
ENDBRANCH  15  16
ENDBRANCH  12  15
ENDBRANCH   1  12
TORSDOF 7
ENDMDL
