MODEL 1
REMARK VINA RESULT:    -5.783      0.000      0.000
REMARK INTER + INTRA:          -7.894
REMARK INTER:                  -7.304
REMARK INTRA:                  -0.590
REMARK UNBOUND:                -0.590
REMARK  Name = GZL
REMARK  7 active torsions:
REMARK  status: ('A' for Active; 'I' for Inactive)
REMARK    1  A    between atoms: C_1  and  C_2
REMARK    2  A    between atoms: C_1  and  O_6
REMARK    3  A    between atoms: C_2  and  C_3
REMARK    4  A    between atoms: C_2  and  O_7
REMARK    5  A    between atoms: C_4  and  O_9
REMARK    6  A    between atoms: C_5  and  O_11
REMARK    7  A    between atoms: C_10  and  O_12
REMARK                            x       y       z     vdW  Elec       q    Type
REMARK                         _______ _______ _______ _____ _____    ______ ____
ROOT
ATOM      1  C   UNL     1       3.106  -2.776   0.759  1.00  0.00    +0.000 C 
ATOM      2  C   UNL     1       3.042  -1.527  -0.140  1.00  0.00    +0.000 C 
ATOM      3  C   UNL     1       4.502  -1.323  -0.613  1.00  0.00    +0.000 C 
ATOM      4  O   UNL     1       4.481  -3.190   0.817  1.00  0.00    +0.000 OA
ATOM      5  C   UNL     1       5.111  -2.732  -0.398  1.00  0.00    +0.000 C 
ENDROOT
BRANCH   2   6
ATOM      6  O   UNL     1       2.182  -1.759  -1.258  1.00  0.00    +0.000 OA
ATOM      7  H   UNL     1       1.243  -1.793  -1.032  1.00  0.00    +0.000 HD
ENDBRANCH   2   6
BRANCH   3   8
ATOM      8  O   UNL     1       5.168  -0.351   0.194  1.00  0.00    +0.000 OA
ATOM      9  H   UNL     1       4.746  -0.196   1.051  1.00  0.00    +0.000 HD
ENDBRANCH   3   8
BRANCH   5  10
ATOM     10  O   UNL     1       4.785  -3.595  -1.490  1.00  0.00    +0.000 OA
ATOM     11  H   UNL     1       4.669  -3.135  -2.333  1.00  0.00    +0.000 HD
ENDBRANCH   5  10
BRANCH   1  12
ATOM     12  C   UNL     1       2.606  -2.433   2.163  1.00  0.00    +0.000 C 
BRANCH  12  13
ATOM     13  O   UNL     1       1.734  -1.301   2.095  1.00  0.00    +0.000 OA
ATOM     14  H   UNL     1       1.821  -0.693   2.842  1.00  0.00    +0.000 HD
ENDBRANCH  12  13
BRANCH  12  15
ATOM     15  C   UNL     1       3.798  -2.103   3.063  1.00  0.00    +0.000 C 
BRANCH  15  16
ATOM     16  O   UNL     1       4.181  -0.740   2.867  1.00  0.00    +0.000 OA
ATOM     17  H   UNL     1       4.876  -0.437   3.466  1.00  0.00    +0.000 HD
ENDBRANCH  15  16
ENDBRANCH  12  15
ENDBRANCH   1  12
TORSDOF 7
ENDMDL
MODEL 2
REMARK VINA RESULT:    -5.653      1.371      3.752
REMARK INTER + INTRA:          -7.729
REMARK INTER:                  -7.040
REMARK INTRA:                  -0.690
REMARK UNBOUND:                -0.590
REMARK  Name = GZL
REMARK  7 active torsions:
REMARK  status: ('A' for Active; 'I' for Inactive)
REMARK    1  A    between atoms: C_1  and  C_2
REMARK    2  A    between atoms: C_1  and  O_6
REMARK    3  A    between atoms: C_2  and  C_3
REMARK    4  A    between atoms: C_2  and  O_7
REMARK    5  A    between atoms: C_4  and  O_9
REMARK    6  A    between atoms: C_5  and  O_11
REMARK    7  A    between atoms: C_10  and  O_12
REMARK                            x       y       z     vdW  Elec       q    Type
REMARK                         _______ _______ _______ _____ _____    ______ ____
ROOT
ATOM      1  C   UNL     1       4.409  -2.162   1.676  1.00  0.00    +0.000 C 
ATOM      2  C   UNL     1       3.533  -0.897   1.770  1.00  0.00    +0.000 C 
ATOM      3  C   UNL     1       2.083  -1.441   1.788  1.00  0.00    +0.000 C 
ATOM      4  O   UNL     1       3.523  -3.291   1.598  1.00  0.00    +0.000 OA
ATOM      5  C   UNL     1       2.292  -2.907   2.246  1.00  0.00    +0.000 C 
ENDROOT
BRANCH   2   6
ATOM      6  O   UNL     1       3.814  -0.183   2.976  1.00  0.00    +0.000 OA
ATOM      7  H   UNL     1       3.133  -0.274   3.656  1.00  0.00    +0.000 HD
ENDBRANCH   2   6
BRANCH   3   8
ATOM      8  O   UNL     1       1.505  -1.392   0.483  1.00  0.00    +0.000 OA
ATOM      9  H   UNL     1       1.431  -2.255   0.053  1.00  0.00    +0.000 HD
ENDBRANCH   3   8
BRANCH   5  10
ATOM     10  O   UNL     1       2.429  -2.975   3.668  1.00  0.00    +0.000 OA
ATOM     11  H   UNL     1       3.326  -3.180   3.967  1.00  0.00    +0.000 HD
ENDBRANCH   5  10
BRANCH   1  12
ATOM     12  C   UNL     1       5.283  -2.097   0.423  1.00  0.00    +0.000 C 
BRANCH  12  13
ATOM     13  O   UNL     1       5.284  -0.762  -0.088  1.00  0.00    +0.000 OA
ATOM     14  H   UNL     1       5.843  -0.640  -0.869  1.00  0.00    +0.000 HD
ENDBRANCH  12  13
BRANCH  12  15
ATOM     15  C   UNL     1       4.724  -3.047  -0.638  1.00  0.00    +0.000 C 
BRANCH  15  16
ATOM     16  O   UNL     1       3.535  -2.487  -1.201  1.00  0.00    +0.000 OA
ATOM     17  H   UNL     1       2.826  -2.345  -0.560  1.00  0.00    +0.000 HD
ENDBRANCH  15  16
ENDBRANCH  12  15
ENDBRANCH   1  12
TORSDOF 7
ENDMDL
MODEL 3
REMARK VINA RESULT:    -5.292      1.330      1.771
REMARK INTER + INTRA:          -7.274
REMARK INTER:                  -6.999
REMARK INTRA:                  -0.275
REMARK UNBOUND:                -0.590
REMARK  Name = GZL
REMARK  7 active torsions:
REMARK  status: ('A' for Active; 'I' for Inactive)
REMARK    1  A    between atoms: C_1  and  C_2
REMARK    2  A    between atoms: C_1  and  O_6
REMARK    3  A    between atoms: C_2  and  C_3
REMARK    4  A    between atoms: C_2  and  O_7
REMARK    5  A    between atoms: C_4  and  O_9
REMARK    6  A    between atoms: C_5  and  O_11
REMARK    7  A    between atoms: C_10  and  O_12
REMARK                            x       y       z     vdW  Elec       q    Type
REMARK                         _______ _______ _______ _____ _____    ______ ____
ROOT
ATOM      1  C   UNL     1       4.122  -2.623   1.419  1.00  0.00    +0.000 C 
ATOM      2  C   UNL     1       2.780  -2.696   0.665  1.00  0.00    +0.000 C 
ATOM      3  C   UNL     1       3.088  -2.073  -0.719  1.00  0.00    +0.000 C 
ATOM      4  O   UNL     1       5.065  -1.974   0.550  1.00  0.00    +0.000 OA
ATOM      5  C   UNL     1       4.629  -2.218  -0.804  1.00  0.00    +0.000 C 
ENDROOT
BRANCH   2   6
ATOM      6  O   UNL     1       2.361  -4.054   0.520  1.00  0.00    +0.000 OA
ATOM      7  H   UNL     1       1.439  -4.210   0.767  1.00  0.00    +0.000 HD
ENDBRANCH   2   6
BRANCH   3   8
ATOM      8  O   UNL     1       2.702  -0.699  -0.757  1.00  0.00    +0.000 OA
ATOM      9  H   UNL     1       2.849  -0.272  -1.613  1.00  0.00    +0.000 HD
ENDBRANCH   3   8
BRANCH   5  10
ATOM     10  O   UNL     1       4.989  -3.538  -1.219  1.00  0.00    +0.000 OA
ATOM     11  H   UNL     1       5.926  -3.641  -1.432  1.00  0.00    +0.000 HD
ENDBRANCH   5  10
BRANCH   1  12
ATOM     12  C   UNL     1       3.952  -1.810   2.704  1.00  0.00    +0.000 C 
BRANCH  12  13
ATOM     13  O   UNL     1       3.224  -0.613   2.418  1.00  0.00    +0.000 OA
ATOM     14  H   UNL     1       2.455  -0.748   1.848  1.00  0.00    +0.000 HD
ENDBRANCH  12  13
BRANCH  12  15
ATOM     15  C   UNL     1       5.330  -1.447   3.262  1.00  0.00    +0.000 C 
BRANCH  15  16
ATOM     16  O   UNL     1       5.293  -1.496   4.690  1.00  0.00    +0.000 OA
ATOM     17  H   UNL     1       4.404  -1.429   5.063  1.00  0.00    +0.000 HD
ENDBRANCH  15  16
ENDBRANCH  12  15
ENDBRANCH   1  12
TORSDOF 7
ENDMDL
MODEL 4
REMARK VINA RESULT:    -5.290      1.326      2.108
REMARK INTER + INTRA:          -7.272
REMARK INTER:                  -6.792
REMARK INTRA:                  -0.480
REMARK UNBOUND:                -0.590
REMARK  Name = GZL
REMARK  7 active torsions:
REMARK  status: ('A' for Active; 'I' for Inactive)
REMARK    1  A    between atoms: C_1  and  C_2
REMARK    2  A    between atoms: C_1  and  O_6
REMARK    3  A    between atoms: C_2  and  C_3
REMARK    4  A    between atoms: C_2  and  O_7
REMARK    5  A    between atoms: C_4  and  O_9
REMARK    6  A    between atoms: C_5  and  O_11
REMARK    7  A    between atoms: C_10  and  O_12
REMARK                            x       y       z     vdW  Elec       q    Type
REMARK                         _______ _______ _______ _____ _____    ______ ____
ROOT
ATOM      1  C   UNL     1       3.785  -2.915   1.021  1.00  0.00    +0.000 C 
ATOM      2  C   UNL     1       3.901  -2.883  -0.515  1.00  0.00    +0.000 C 
ATOM      3  C   UNL     1       4.445  -1.467  -0.826  1.00  0.00    +0.000 C 
ATOM      4  O   UNL     1       4.180  -1.621   1.506  1.00  0.00    +0.000 OA
ATOM      5  C   UNL     1       5.081  -1.060   0.528  1.00  0.00    +0.000 C 
ENDROOT
BRANCH   2   6
ATOM      6  O   UNL     1       4.817  -3.881  -0.968  1.00  0.00    +0.000 OA
ATOM      7  H   UNL     1       4.878  -4.653  -0.388  1.00  0.00    +0.000 HD
ENDBRANCH   2   6
BRANCH   3   8
ATOM      8  O   UNL     1       3.383  -0.579  -1.177  1.00  0.00    +0.000 OA
ATOM      9  H   UNL     1       3.682   0.268  -1.539  1.00  0.00    +0.000 HD
ENDBRANCH   3   8
BRANCH   5  10
ATOM     10  O   UNL     1       6.386  -1.628   0.663  1.00  0.00    +0.000 OA
ATOM     11  H   UNL     1       6.866  -1.713  -0.172  1.00  0.00    +0.000 HD
ENDBRANCH   5  10
BRANCH   1  12
ATOM     12  C   UNL     1       2.340  -3.205   1.428  1.00  0.00    +0.000 C 
BRANCH  12  13
ATOM     13  O   UNL     1       1.450  -2.643   0.460  1.00  0.00    +0.000 OA
ATOM     14  H   UNL     1       1.302  -1.693   0.567  1.00  0.00    +0.000 HD
ENDBRANCH  12  13
BRANCH  12  15
ATOM     15  C   UNL     1       2.061  -2.583   2.798  1.00  0.00    +0.000 C 
BRANCH  15  16
ATOM     16  O   UNL     1       1.683  -1.215   2.632  1.00  0.00    +0.000 OA
ATOM     17  H   UNL     1       1.007  -0.915   3.254  1.00  0.00    +0.000 HD
ENDBRANCH  15  16
ENDBRANCH  12  15
ENDBRANCH   1  12
TORSDOF 7
ENDMDL
MODEL 5
REMARK VINA RESULT:    -5.038      1.471      2.775
REMARK INTER + INTRA:          -6.954
REMARK INTER:                  -6.819
REMARK INTRA:                  -0.135
REMARK UNBOUND:                -0.590
REMARK  Name = GZL
REMARK  7 active torsions:
REMARK  status: ('A' for Active; 'I' for Inactive)
REMARK    1  A    between atoms: C_1  and  C_2
REMARK    2  A    between atoms: C_1  and  O_6
REMARK    3  A    between atoms: C_2  and  C_3
REMARK    4  A    between atoms: C_2  and  O_7
REMARK    5  A    between atoms: C_4  and  O_9
REMARK    6  A    between atoms: C_5  and  O_11
REMARK    7  A    between atoms: C_10  and  O_12
REMARK                            x       y       z     vdW  Elec       q    Type
REMARK                         _______ _______ _______ _____ _____    ______ ____
ROOT
ATOM      1  C   UNL     1       3.621  -1.083   1.415  1.00  0.00    +0.000 C 
ATOM      2  C   UNL     1       4.764  -1.932   0.826  1.00  0.00    +0.000 C 
ATOM      3  C   UNL     1       4.131  -2.617  -0.410  1.00  0.00    +0.000 C 
ATOM      4  O   UNL     1       2.455  -1.319   0.608  1.00  0.00    +0.000 OA
ATOM      5  C   UNL     1       2.919  -1.696  -0.705  1.00  0.00    +0.000 C 
ENDROOT
BRANCH   2   6
ATOM      6  O   UNL     1       5.855  -1.098   0.432  1.00  0.00    +0.000 OA
ATOM      7  H   UNL     1       6.634  -1.585   0.129  1.00  0.00    +0.000 HD
ENDBRANCH   2   6
BRANCH   3   8
ATOM      8  O   UNL     1       3.700  -3.941  -0.094  1.00  0.00    +0.000 OA
ATOM      9  H   UNL     1       3.065  -3.985   0.635  1.00  0.00    +0.000 HD
ENDBRANCH   3   8
BRANCH   5  10
ATOM     10  O   UNL     1       3.331  -0.544  -1.444  1.00  0.00    +0.000 OA
ATOM     11  H   UNL     1       3.595  -0.734  -2.354  1.00  0.00    +0.000 HD
ENDBRANCH   5  10
BRANCH   1  12
ATOM     12  C   UNL     1       3.349  -1.506   2.859  1.00  0.00    +0.000 C 
BRANCH  12  13
ATOM     13  O   UNL     1       4.591  -1.722   3.534  1.00  0.00    +0.000 OA
ATOM     14  H   UNL     1       5.222  -0.995   3.438  1.00  0.00    +0.000 HD
ENDBRANCH  12  13
BRANCH  12  15
ATOM     15  C   UNL     1       2.534  -2.801   2.867  1.00  0.00    +0.000 C 
BRANCH  15  16
ATOM     16  O   UNL     1       2.159  -3.120   4.209  1.00  0.00    +0.000 OA
ATOM     17  H   UNL     1       1.918  -4.047   4.339  1.00  0.00    +0.000 HD
ENDBRANCH  15  16
ENDBRANCH  12  15
ENDBRANCH   1  12
TORSDOF 7
ENDMDL
MODEL 6
REMARK VINA RESULT:    -4.585      1.211      3.762
REMARK INTER + INTRA:          -6.380
REMARK INTER:                  -6.298
REMARK INTRA:                  -0.082
REMARK UNBOUND:                -0.590
REMARK  Name = GZL
REMARK  7 active torsions:
REMARK  status: ('A' for Active; 'I' for Inactive)
REMARK    1  A    between atoms: C_1  and  C_2
REMARK    2  A    between atoms: C_1  and  O_6
REMARK    3  A    between atoms: C_2  and  C_3
REMARK    4  A    between atoms: C_2  and  O_7
REMARK    5  A    between atoms: C_4  and  O_9
REMARK    6  A    between atoms: C_5  and  O_11
REMARK    7  A    between atoms: C_10  and  O_12
REMARK                            x       y       z     vdW  Elec       q    Type
REMARK                         _______ _______ _______ _____ _____    ______ ____
ROOT
ATOM      1  C   UNL     1       4.013  -1.524   0.873  1.00  0.00    +0.000 C 
ATOM      2  C   UNL     1       2.859  -1.945  -0.057  1.00  0.00    +0.000 C 
ATOM      3  C   UNL     1       1.956  -2.831   0.836  1.00  0.00    +0.000 C 
ATOM      4  O   UNL     1       3.793  -2.160   2.142  1.00  0.00    +0.000 OA
ATOM      5  C   UNL     1       2.372  -2.385   2.261  1.00  0.00    +0.000 C 
ENDROOT
BRANCH   2   6
ATOM      6  O   UNL     1       2.140  -0.797  -0.512  1.00  0.00    +0.000 OA
ATOM      7  H   UNL     1       1.419  -1.001  -1.124  1.00  0.00    +0.000 HD
ENDBRANCH   2   6
BRANCH   3   8
ATOM      8  O   UNL     1       2.239  -4.215   0.632  1.00  0.00    +0.000 OA
ATOM      9  H   UNL     1       1.790  -4.600  -0.133  1.00  0.00    +0.000 HD
ENDBRANCH   3   8
BRANCH   5  10
ATOM     10  O   UNL     1       1.701  -1.177   2.628  1.00  0.00    +0.000 OA
ATOM     11  H   UNL     1       1.146  -1.259   3.415  1.00  0.00    +0.000 HD
ENDBRANCH   5  10
BRANCH   1  12
ATOM     12  C   UNL     1       5.348  -1.983   0.284  1.00  0.00    +0.000 C 
BRANCH  12  13
ATOM     13  O   UNL     1       6.250  -0.875   0.227  1.00  0.00    +0.000 OA
ATOM     14  H   UNL     1       6.822  -0.793   1.003  1.00  0.00    +0.000 HD
ENDBRANCH  12  13
BRANCH  12  15
ATOM     15  C   UNL     1       5.122  -2.528  -1.127  1.00  0.00    +0.000 C 
BRANCH  15  16
ATOM     16  O   UNL     1       4.868  -3.933  -1.060  1.00  0.00    +0.000 OA
ATOM     17  H   UNL     1       4.614  -4.328  -1.905  1.00  0.00    +0.000 HD
ENDBRANCH  15  16
ENDBRANCH  12  15
ENDBRANCH   1  12
TORSDOF 7
ENDMDL
MODEL 7
REMARK VINA RESULT:    -4.476     12.614     13.739
REMARK INTER + INTRA:          -6.244
REMARK INTER:                  -5.967
REMARK INTRA:                  -0.276
REMARK UNBOUND:                -0.590
REMARK  Name = GZL
REMARK  7 active torsions:
REMARK  status: ('A' for Active; 'I' for Inactive)
REMARK    1  A    between atoms: C_1  and  C_2
REMARK    2  A    between atoms: C_1  and  O_6
REMARK    3  A    between atoms: C_2  and  C_3
REMARK    4  A    between atoms: C_2  and  O_7
REMARK    5  A    between atoms: C_4  and  O_9
REMARK    6  A    between atoms: C_5  and  O_11
REMARK    7  A    between atoms: C_10  and  O_12
REMARK                            x       y       z     vdW  Elec       q    Type
REMARK                         _______ _______ _______ _____ _____    ______ ____
ROOT
ATOM      1  C   UNL     1      -8.266  -8.863   0.465  1.00  0.00    +0.000 C 
ATOM      2  C   UNL     1      -8.073  -8.887  -1.064  1.00  0.00    +0.000 C 
ATOM      3  C   UNL     1      -7.759 -10.369  -1.383  1.00  0.00    +0.000 C 
ATOM      4  O   UNL     1      -8.030 -10.196   0.946  1.00  0.00    +0.000 OA
ATOM      5  C   UNL     1      -8.331 -11.097  -0.140  1.00  0.00    +0.000 C 
ENDROOT
BRANCH   2   6
ATOM      6  O   UNL     1      -9.270  -8.475  -1.726  1.00  0.00    +0.000 OA
ATOM      7  H   UNL     1      -9.386  -8.860  -2.606  1.00  0.00    +0.000 HD
ENDBRANCH   2   6
BRANCH   3   8
ATOM      8  O   UNL     1      -6.350 -10.579  -1.494  1.00  0.00    +0.000 OA
ATOM      9  H   UNL     1      -6.106 -11.308  -2.081  1.00  0.00    +0.000 HD
ENDBRANCH   3   8
BRANCH   5  10
ATOM     10  O   UNL     1      -9.744 -11.276  -0.268  1.00  0.00    +0.000 OA
ATOM     11  H   UNL     1     -10.093 -11.044  -1.139  1.00  0.00    +0.000 HD
ENDBRANCH   5  10
BRANCH   1  12
ATOM     12  C   UNL     1      -7.267  -7.895   1.100  1.00  0.00    +0.000 C 
BRANCH  12  13
ATOM     13  O   UNL     1      -5.991  -8.048   0.474  1.00  0.00    +0.000 OA
ATOM     14  H   UNL     1      -5.453  -7.244   0.476  1.00  0.00    +0.000 HD
ENDBRANCH  12  13
BRANCH  12  15
ATOM     15  C   UNL     1      -7.141  -8.200   2.594  1.00  0.00    +0.000 C 
BRANCH  15  16
ATOM     16  O   UNL     1      -5.973  -7.560   3.114  1.00  0.00    +0.000 OA
ATOM     17  H   UNL     1      -5.198  -7.630   2.540  1.00  0.00    +0.000 HD
ENDBRANCH  15  16
ENDBRANCH  12  15
ENDBRANCH   1  12
TORSDOF 7
ENDMDL
MODEL 8
REMARK VINA RESULT:    -4.450      9.054     10.329
REMARK INTER + INTRA:          -6.211
REMARK INTER:                  -5.524
REMARK INTRA:                  -0.687
REMARK UNBOUND:                -0.590
REMARK  Name = GZL
REMARK  7 active torsions:
REMARK  status: ('A' for Active; 'I' for Inactive)
REMARK    1  A    between atoms: C_1  and  C_2
REMARK    2  A    between atoms: C_1  and  O_6
REMARK    3  A    between atoms: C_2  and  C_3
REMARK    4  A    between atoms: C_2  and  O_7
REMARK    5  A    between atoms: C_4  and  O_9
REMARK    6  A    between atoms: C_5  and  O_11
REMARK    7  A    between atoms: C_10  and  O_12
REMARK                            x       y       z     vdW  Elec       q    Type
REMARK                         _______ _______ _______ _____ _____    ______ ____
ROOT
ATOM      1  C   UNL     1      13.421   1.493   4.021  1.00  0.00    +0.000 C 
ATOM      2  C   UNL     1      12.596   0.247   4.397  1.00  0.00    +0.000 C 
ATOM      3  C   UNL     1      12.472  -0.541   3.070  1.00  0.00    +0.000 C 
ATOM      4  O   UNL     1      13.682   1.422   2.610  1.00  0.00    +0.000 OA
ATOM      5  C   UNL     1      13.656   0.026   2.245  1.00  0.00    +0.000 C 
ENDROOT
BRANCH   2   6
ATOM      6  O   UNL     1      13.285  -0.531   5.378  1.00  0.00    +0.000 OA
ATOM      7  H   UNL     1      12.873  -0.516   6.253  1.00  0.00    +0.000 HD
ENDBRANCH   2   6
BRANCH   3   8
ATOM      8  O   UNL     1      11.226  -0.267   2.429  1.00  0.00    +0.000 OA
ATOM      9  H   UNL     1      11.263   0.459   1.791  1.00  0.00    +0.000 HD
ENDBRANCH   3   8
BRANCH   5  10
ATOM     10  O   UNL     1      14.880  -0.614   2.613  1.00  0.00    +0.000 OA
ATOM     11  H   UNL     1      15.620  -0.005   2.740  1.00  0.00    +0.000 HD
ENDBRANCH   5  10
BRANCH   1  12
ATOM     12  C   UNL     1      12.626   2.759   4.341  1.00  0.00    +0.000 C 
BRANCH  12  13
ATOM     13  O   UNL     1      11.379   2.400   4.942  1.00  0.00    +0.000 OA
ATOM     14  H   UNL     1      10.610   2.560   4.378  1.00  0.00    +0.000 HD
ENDBRANCH  12  13
BRANCH  12  15
ATOM     15  C   UNL     1      12.363   3.536   3.050  1.00  0.00    +0.000 C 
BRANCH  15  16
ATOM     16  O   UNL     1      11.404   2.833   2.257  1.00  0.00    +0.000 OA
ATOM     17  H   UNL     1      10.982   2.094   2.715  1.00  0.00    +0.000 HD
ENDBRANCH  15  16
ENDBRANCH  12  15
ENDBRANCH   1  12
TORSDOF 7
ENDMDL
MODEL 9
REMARK VINA RESULT:    -4.154      9.111     10.361
REMARK INTER + INTRA:          -5.836
REMARK INTER:                  -5.112
REMARK INTRA:                  -0.724
REMARK UNBOUND:                -0.590
REMARK  Name = GZL
REMARK  7 active torsions:
REMARK  status: ('A' for Active; 'I' for Inactive)
REMARK    1  A    between atoms: C_1  and  C_2
REMARK    2  A    between atoms: C_1  and  O_6
REMARK    3  A    between atoms: C_2  and  C_3
REMARK    4  A    between atoms: C_2  and  O_7
REMARK    5  A    between atoms: C_4  and  O_9
REMARK    6  A    between atoms: C_5  and  O_11
REMARK    7  A    between atoms: C_10  and  O_12
REMARK                            x       y       z     vdW  Elec       q    Type
REMARK                         _______ _______ _______ _____ _____    ______ ____
ROOT
ATOM      1  C   UNL     1      12.432   1.371   3.535  1.00  0.00    +0.000 C 
ATOM      2  C   UNL     1      12.180   0.311   2.445  1.00  0.00    +0.000 C 
ATOM      3  C   UNL     1      13.571  -0.329   2.210  1.00  0.00    +0.000 C 
ATOM      4  O   UNL     1      13.837   1.352   3.834  1.00  0.00    +0.000 OA
ATOM      5  C   UNL     1      14.317   0.027   3.521  1.00  0.00    +0.000 C 
ENDROOT
BRANCH   2   6
ATOM      6  O   UNL     1      11.250  -0.670   2.908  1.00  0.00    +0.000 OA
ATOM      7  H   UNL     1      10.722  -0.385   3.666  1.00  0.00    +0.000 HD
ENDBRANCH   2   6
BRANCH   3   8
ATOM      8  O   UNL     1      14.217   0.259   1.080  1.00  0.00    +0.000 OA
ATOM      9  H   UNL     1      14.743   1.042   1.292  1.00  0.00    +0.000 HD
ENDBRANCH   3   8
BRANCH   5  10
ATOM     10  O   UNL     1      13.972  -0.891   4.562  1.00  0.00    +0.000 OA
ATOM     11  H   UNL     1      13.513  -0.485   5.309  1.00  0.00    +0.000 HD
ENDBRANCH   5  10
BRANCH   1  12
ATOM     12  C   UNL     1      12.028   2.753   3.019  1.00  0.00    +0.000 C 
BRANCH  12  13
ATOM     13  O   UNL     1      11.247   2.608   1.830  1.00  0.00    +0.000 OA
ATOM     14  H   UNL     1      10.719   1.798   1.803  1.00  0.00    +0.000 HD
ENDBRANCH  12  13
BRANCH  12  15
ATOM     15  C   UNL     1      13.285   3.568   2.706  1.00  0.00    +0.000 C 
BRANCH  15  16
ATOM     16  O   UNL     1      13.794   3.186   1.426  1.00  0.00    +0.000 OA
ATOM     17  H   UNL     1      13.211   2.594   0.932  1.00  0.00    +0.000 HD
ENDBRANCH  15  16
ENDBRANCH  12  15
ENDBRANCH   1  12
TORSDOF 7
ENDMDL
