MODEL 1
REMARK VINA RESULT:    -5.723      0.000      0.000
REMARK INTER + INTRA:          -7.449
REMARK INTER:                  -7.229
REMARK INTRA:                  -0.220
REMARK UNBOUND:                -0.220
REMARK  Name = FRU
REMARK  7 active torsions:
REMARK  status: ('A' for Active; 'I' for Inactive)
REMARK    1  A    between atoms: C_1  and  C_2
REMARK    2  A    between atoms: C_1  and  O_7
REMARK    3  A    between atoms: C_2  and  O_8
REMARK    4  A    between atoms: C_3  and  O_9
REMARK    5  A    between atoms: C_4  and  O_10
REMARK    6  A    between atoms: C_5  and  C_6
REMARK    7  A    between atoms: C_6  and  O_12
REMARK                            x       y       z     vdW  Elec       q    Type
REMARK                         _______ _______ _______ _____ _____    ______ ____
ROOT
ATOM      1  C   UNL     1       4.068  -1.320   2.343  1.00  0.00    +0.000 C 
ATOM      2  C   UNL     1       2.814  -2.149   2.007  1.00  0.00    +0.000 C 
ATOM      3  C   UNL     1       3.076  -2.673   0.572  1.00  0.00    +0.000 C 
ATOM      4  C   UNL     1       4.616  -2.551   0.461  1.00  0.00    +0.000 C 
ATOM      5  O   UNL     1       4.915  -1.338   1.183  1.00  0.00    +0.000 OA
ENDROOT
BRANCH   1   6
ATOM      6  O   UNL     1       3.692   0.024   2.650  1.00  0.00    +0.000 OA
ATOM      7  H   UNL     1       3.013   0.277   2.010  1.00  0.00    +0.000 HD
ENDBRANCH   1   6
BRANCH   2   8
ATOM      8  O   UNL     1       1.646  -1.328   2.038  1.00  0.00    +0.000 OA
ATOM      9  H   UNL     1       0.889  -1.913   1.898  1.00  0.00    +0.000 HD
ENDBRANCH   2   8
BRANCH   3  10
ATOM     10  O   UNL     1       2.656  -4.032   0.441  1.00  0.00    +0.000 OA
ATOM     11  H   UNL     1       1.715  -4.013   0.215  1.00  0.00    +0.000 HD
ENDBRANCH   3  10
BRANCH   1  12
ATOM     12  C   UNL     1       4.802  -1.939   3.533  1.00  0.00    +0.000 C 
BRANCH  12  13
ATOM     13  O   UNL     1       5.460  -0.910   4.275  1.00  0.00    +0.000 OA
ATOM     14  H   UNL     1       5.015  -0.081   4.058  1.00  0.00    +0.000 HD
ENDBRANCH  12  13
ENDBRANCH   1  12
BRANCH   4  15
ATOM     15  C   UNL     1       5.043  -2.427  -1.002  1.00  0.00    +0.000 C 
BRANCH  15  16
ATOM     16  O   UNL     1       5.063  -3.723  -1.605  1.00  0.00    +0.000 OA
ATOM     17  H   UNL     1       4.418  -3.707  -2.325  1.00  0.00    +0.000 HD
ENDBRANCH  15  16
ENDBRANCH   4  15
TORSDOF 7
ENDMDL
MODEL 2
REMARK VINA RESULT:    -5.264      1.275      3.922
REMARK INTER + INTRA:          -6.869
REMARK INTER:                  -6.729
REMARK INTRA:                  -0.141
REMARK UNBOUND:                -0.220
REMARK  Name = FRU
REMARK  7 active torsions:
REMARK  status: ('A' for Active; 'I' for Inactive)
REMARK    1  A    between atoms: C_1  and  C_2
REMARK    2  A    between atoms: C_1  and  O_7
REMARK    3  A    between atoms: C_2  and  O_8
REMARK    4  A    between atoms: C_3  and  O_9
REMARK    5  A    between atoms: C_4  and  O_10
REMARK    6  A    between atoms: C_5  and  C_6
REMARK    7  A    between atoms: C_6  and  O_12
REMARK                            x       y       z     vdW  Elec       q    Type
REMARK                         _______ _______ _______ _____ _____    ______ ____
ROOT
ATOM      1  C   UNL     1       4.149  -2.208   0.022  1.00  0.00    +0.000 C 
ATOM      2  C   UNL     1       2.903  -2.732   0.761  1.00  0.00    +0.000 C 
ATOM      3  C   UNL     1       3.274  -2.622   2.261  1.00  0.00    +0.000 C 
ATOM      4  C   UNL     1       4.421  -1.581   2.234  1.00  0.00    +0.000 C 
ATOM      5  O   UNL     1       5.134  -1.892   1.018  1.00  0.00    +0.000 OA
ENDROOT
BRANCH   1   6
ATOM      6  O   UNL     1       4.652  -3.215  -0.857  1.00  0.00    +0.000 OA
ATOM      7  H   UNL     1       3.963  -3.891  -0.930  1.00  0.00    +0.000 HD
ENDBRANCH   1   6
BRANCH   2   8
ATOM      8  O   UNL     1       2.643  -4.090   0.404  1.00  0.00    +0.000 OA
ATOM      9  H   UNL     1       1.936  -4.076  -0.255  1.00  0.00    +0.000 HD
ENDBRANCH   2   8
BRANCH   3  10
ATOM     10  O   UNL     1       2.166  -2.148   3.027  1.00  0.00    +0.000 OA
ATOM     11  H   UNL     1       2.043  -2.773   3.756  1.00  0.00    +0.000 HD
ENDBRANCH   3  10
BRANCH   1  12
ATOM     12  C   UNL     1       3.794  -0.952  -0.776  1.00  0.00    +0.000 C 
BRANCH  12  13
ATOM     13  O   UNL     1       2.407  -0.979  -1.115  1.00  0.00    +0.000 OA
ATOM     14  H   UNL     1       2.295  -0.402  -1.882  1.00  0.00    +0.000 HD
ENDBRANCH  12  13
ENDBRANCH   1  12
BRANCH   4  15
ATOM     15  C   UNL     1       5.331  -1.750   3.451  1.00  0.00    +0.000 C 
BRANCH  15  16
ATOM     16  O   UNL     1       5.287  -0.564   4.248  1.00  0.00    +0.000 OA
ATOM     17  H   UNL     1       4.379  -0.474   4.567  1.00  0.00    +0.000 HD
ENDBRANCH  15  16
ENDBRANCH   4  15
TORSDOF 7
ENDMDL
MODEL 3
REMARK VINA RESULT:    -5.048      1.749      2.331
REMARK INTER + INTRA:          -6.596
REMARK INTER:                  -6.425
REMARK INTRA:                  -0.172
REMARK UNBOUND:                -0.220
REMARK  Name = FRU
REMARK  7 active torsions:
REMARK  status: ('A' for Active; 'I' for Inactive)
REMARK    1  A    between atoms: C_1  and  C_2
REMARK    2  A    between atoms: C_1  and  O_7
REMARK    3  A    between atoms: C_2  and  O_8
REMARK    4  A    between atoms: C_3  and  O_9
REMARK    5  A    between atoms: C_4  and  O_10
REMARK    6  A    between atoms: C_5  and  C_6
REMARK    7  A    between atoms: C_6  and  O_12
REMARK                            x       y       z     vdW  Elec       q    Type
REMARK                         _______ _______ _______ _____ _____    ______ ____
ROOT
ATOM      1  C   UNL     1       2.527  -2.009   2.096  1.00  0.00    +0.000 C 
ATOM      2  C   UNL     1       2.193  -2.040   0.594  1.00  0.00    +0.000 C 
ATOM      3  C   UNL     1       3.570  -1.927  -0.107  1.00  0.00    +0.000 C 
ATOM      4  C   UNL     1       4.540  -2.379   1.014  1.00  0.00    +0.000 C 
ATOM      5  O   UNL     1       3.949  -1.838   2.214  1.00  0.00    +0.000 OA
ENDROOT
BRANCH   1   6
ATOM      6  O   UNL     1       1.852  -0.916   2.721  1.00  0.00    +0.000 OA
ATOM      7  H   UNL     1       2.529  -0.263   2.948  1.00  0.00    +0.000 HD
ENDBRANCH   1   6
BRANCH   2   8
ATOM      8  O   UNL     1       1.356  -0.937   0.243  1.00  0.00    +0.000 OA
ATOM      9  H   UNL     1       1.928  -0.270  -0.160  1.00  0.00    +0.000 HD
ENDBRANCH   2   8
BRANCH   3  10
ATOM     10  O   UNL     1       3.643  -2.800  -1.235  1.00  0.00    +0.000 OA
ATOM     11  H   UNL     1       4.327  -2.446  -1.819  1.00  0.00    +0.000 HD
ENDBRANCH   3  10
BRANCH   1  12
ATOM     12  C   UNL     1       2.106  -3.324   2.754  1.00  0.00    +0.000 C 
BRANCH  12  13
ATOM     13  O   UNL     1       2.165  -3.186   4.175  1.00  0.00    +0.000 OA
ATOM     14  H   UNL     1       2.972  -2.695   4.375  1.00  0.00    +0.000 HD
ENDBRANCH  12  13
ENDBRANCH   1  12
BRANCH   4  15
ATOM     15  C   UNL     1       5.934  -1.794   0.788  1.00  0.00    +0.000 C 
BRANCH  15  16
ATOM     16  O   UNL     1       5.834  -0.616  -0.015  1.00  0.00    +0.000 OA
ATOM     17  H   UNL     1       6.481  -0.707  -0.727  1.00  0.00    +0.000 HD
ENDBRANCH  15  16
ENDBRANCH   4  15
TORSDOF 7
ENDMDL
MODEL 4
REMARK VINA RESULT:    -4.965      1.393      4.247
REMARK INTER + INTRA:          -6.491
REMARK INTER:                  -6.228
REMARK INTRA:                  -0.263
REMARK UNBOUND:                -0.220
REMARK  Name = FRU
REMARK  7 active torsions:
REMARK  status: ('A' for Active; 'I' for Inactive)
REMARK    1  A    between atoms: C_1  and  C_2
REMARK    2  A    between atoms: C_1  and  O_7
REMARK    3  A    between atoms: C_2  and  O_8
REMARK    4  A    between atoms: C_3  and  O_9
REMARK    5  A    between atoms: C_4  and  O_10
REMARK    6  A    between atoms: C_5  and  C_6
REMARK    7  A    between atoms: C_6  and  O_12
REMARK                            x       y       z     vdW  Elec       q    Type
REMARK                         _______ _______ _______ _____ _____    ______ ____
ROOT
ATOM      1  C   UNL     1       3.915  -2.162  -0.294  1.00  0.00    +0.000 C 
ATOM      2  C   UNL     1       4.876  -1.608   0.775  1.00  0.00    +0.000 C 
ATOM      3  C   UNL     1       3.971  -1.356   2.008  1.00  0.00    +0.000 C 
ATOM      4  C   UNL     1       2.756  -2.268   1.707  1.00  0.00    +0.000 C 
ATOM      5  O   UNL     1       2.597  -2.163   0.276  1.00  0.00    +0.000 OA
ENDROOT
BRANCH   1   6
ATOM      6  O   UNL     1       3.943  -1.327  -1.452  1.00  0.00    +0.000 OA
ATOM      7  H   UNL     1       3.607  -1.857  -2.188  1.00  0.00    +0.000 HD
ENDBRANCH   1   6
BRANCH   2   8
ATOM      8  O   UNL     1       5.472  -0.388   0.329  1.00  0.00    +0.000 OA
ATOM      9  H   UNL     1       5.939  -0.589  -0.492  1.00  0.00    +0.000 HD
ENDBRANCH   2   8
BRANCH   3  10
ATOM     10  O   UNL     1       4.628  -1.753   3.212  1.00  0.00    +0.000 OA
ATOM     11  H   UNL     1       3.947  -1.806   3.897  1.00  0.00    +0.000 HD
ENDBRANCH   3  10
BRANCH   1  12
ATOM     12  C   UNL     1       4.320  -3.588  -0.672  1.00  0.00    +0.000 C 
BRANCH  12  13
ATOM     13  O   UNL     1       5.153  -3.555  -1.832  1.00  0.00    +0.000 OA
ATOM     14  H   UNL     1       5.887  -4.162  -1.666  1.00  0.00    +0.000 HD
ENDBRANCH  12  13
ENDBRANCH   1  12
BRANCH   4  15
ATOM     15  C   UNL     1       1.507  -1.757   2.427  1.00  0.00    +0.000 C 
BRANCH  15  16
ATOM     16  O   UNL     1       1.772  -0.467   2.983  1.00  0.00    +0.000 OA
ATOM     17  H   UNL     1       2.732  -0.382   3.048  1.00  0.00    +0.000 HD
ENDBRANCH  15  16
ENDBRANCH   4  15
TORSDOF 7
ENDMDL
MODEL 5
REMARK VINA RESULT:    -4.884      1.241      2.732
REMARK INTER + INTRA:          -6.389
REMARK INTER:                  -6.087
REMARK INTRA:                  -0.302
REMARK UNBOUND:                -0.220
REMARK  Name = FRU
REMARK  7 active torsions:
REMARK  status: ('A' for Active; 'I' for Inactive)
REMARK    1  A    between atoms: C_1  and  C_2
REMARK    2  A    between atoms: C_1  and  O_7
REMARK    3  A    between atoms: C_2  and  O_8
REMARK    4  A    between atoms: C_3  and  O_9
REMARK    5  A    between atoms: C_4  and  O_10
REMARK    6  A    between atoms: C_5  and  C_6
REMARK    7  A    between atoms: C_6  and  O_12
REMARK                            x       y       z     vdW  Elec       q    Type
REMARK                         _______ _______ _______ _____ _____    ______ ____
ROOT
ATOM      1  C   UNL     1       2.909  -2.271   2.252  1.00  0.00    +0.000 C 
ATOM      2  C   UNL     1       4.130  -1.339   2.137  1.00  0.00    +0.000 C 
ATOM      3  C   UNL     1       4.924  -1.897   0.930  1.00  0.00    +0.000 C 
ATOM      4  C   UNL     1       3.840  -2.709   0.178  1.00  0.00    +0.000 C 
ATOM      5  O   UNL     1       3.046  -3.280   1.240  1.00  0.00    +0.000 OA
ENDROOT
BRANCH   1   6
ATOM      6  O   UNL     1       2.882  -2.878   3.545  1.00  0.00    +0.000 OA
ATOM      7  H   UNL     1       1.960  -2.875   3.836  1.00  0.00    +0.000 HD
ENDBRANCH   1   6
BRANCH   2   8
ATOM      8  O   UNL     1       4.917  -1.394   3.328  1.00  0.00    +0.000 OA
ATOM      9  H   UNL     1       5.295  -0.514   3.454  1.00  0.00    +0.000 HD
ENDBRANCH   2   8
BRANCH   3  10
ATOM     10  O   UNL     1       5.429  -0.836   0.117  1.00  0.00    +0.000 OA
ATOM     11  H   UNL     1       6.384  -0.797   0.269  1.00  0.00    +0.000 HD
ENDBRANCH   3  10
BRANCH   1  12
ATOM     12  C   UNL     1       1.622  -1.477   2.024  1.00  0.00    +0.000 C 
BRANCH  12  13
ATOM     13  O   UNL     1       1.537  -0.420   2.982  1.00  0.00    +0.000 OA
ATOM     14  H   UNL     1       2.377   0.056   2.947  1.00  0.00    +0.000 HD
ENDBRANCH  12  13
ENDBRANCH   1  12
BRANCH   4  15
ATOM     15  C   UNL     1       4.481  -3.809  -0.668  1.00  0.00    +0.000 C 
BRANCH  15  16
ATOM     16  O   UNL     1       5.303  -3.217  -1.677  1.00  0.00    +0.000 OA
ATOM     17  H   UNL     1       5.291  -3.817  -2.435  1.00  0.00    +0.000 HD
ENDBRANCH  15  16
ENDBRANCH   4  15
TORSDOF 7
ENDMDL
MODEL 6
REMARK VINA RESULT:    -4.805      1.792      3.686
REMARK INTER + INTRA:          -6.289
REMARK INTER:                  -6.029
REMARK INTRA:                  -0.260
REMARK UNBOUND:                -0.220
REMARK  Name = FRU
REMARK  7 active torsions:
REMARK  status: ('A' for Active; 'I' for Inactive)
REMARK    1  A    between atoms: C_1  and  C_2
REMARK    2  A    between atoms: C_1  and  O_7
REMARK    3  A    between atoms: C_2  and  O_8
REMARK    4  A    between atoms: C_3  and  O_9
REMARK    5  A    between atoms: C_4  and  O_10
REMARK    6  A    between atoms: C_5  and  C_6
REMARK    7  A    between atoms: C_6  and  O_12
REMARK                            x       y       z     vdW  Elec       q    Type
REMARK                         _______ _______ _______ _____ _____    ______ ____
ROOT
ATOM      1  C   UNL     1       4.240  -2.257   0.108  1.00  0.00    +0.000 C 
ATOM      2  C   UNL     1       2.902  -1.561  -0.200  1.00  0.00    +0.000 C 
ATOM      3  C   UNL     1       1.989  -1.944   0.993  1.00  0.00    +0.000 C 
ATOM      4  C   UNL     1       3.024  -2.341   2.076  1.00  0.00    +0.000 C 
ATOM      5  O   UNL     1       4.066  -2.999   1.325  1.00  0.00    +0.000 OA
ENDROOT
BRANCH   1   6
ATOM      6  O   UNL     1       4.582  -3.144  -0.959  1.00  0.00    +0.000 OA
ATOM      7  H   UNL     1       3.825  -3.162  -1.560  1.00  0.00    +0.000 HD
ENDBRANCH   1   6
BRANCH   2   8
ATOM      8  O   UNL     1       2.355  -2.044  -1.428  1.00  0.00    +0.000 OA
ATOM      9  H   UNL     1       1.561  -2.546  -1.202  1.00  0.00    +0.000 HD
ENDBRANCH   2   8
BRANCH   3  10
ATOM     10  O   UNL     1       1.205  -0.827   1.415  1.00  0.00    +0.000 OA
ATOM     11  H   UNL     1       1.685  -0.031   1.145  1.00  0.00    +0.000 HD
ENDBRANCH   3  10
BRANCH   1  12
ATOM     12  C   UNL     1       5.344  -1.213   0.288  1.00  0.00    +0.000 C 
BRANCH  12  13
ATOM     13  O   UNL     1       6.309  -1.697   1.224  1.00  0.00    +0.000 OA
ATOM     14  H   UNL     1       5.907  -2.449   1.677  1.00  0.00    +0.000 HD
ENDBRANCH  12  13
ENDBRANCH   1  12
BRANCH   4  15
ATOM     15  C   UNL     1       2.402  -3.301   3.090  1.00  0.00    +0.000 C 
BRANCH  15  16
ATOM     16  O   UNL     1       1.487  -2.586   3.924  1.00  0.00    +0.000 OA
ATOM     17  H   UNL     1       1.001  -3.246   4.436  1.00  0.00    +0.000 HD
ENDBRANCH  15  16
ENDBRANCH   4  15
TORSDOF 7
ENDMDL
MODEL 7
REMARK VINA RESULT:    -4.692      8.512      9.592
REMARK INTER + INTRA:          -6.147
REMARK INTER:                  -5.806
REMARK INTRA:                  -0.340
REMARK UNBOUND:                -0.220
REMARK  Name = FRU
REMARK  7 active torsions:
REMARK  status: ('A' for Active; 'I' for Inactive)
REMARK    1  A    between atoms: C_1  and  C_2
REMARK    2  A    between atoms: C_1  and  O_7
REMARK    3  A    between atoms: C_2  and  O_8
REMARK    4  A    between atoms: C_3  and  O_9
REMARK    5  A    between atoms: C_4  and  O_10
REMARK    6  A    between atoms: C_5  and  C_6
REMARK    7  A    between atoms: C_6  and  O_12
REMARK                            x       y       z     vdW  Elec       q    Type
REMARK                         _______ _______ _______ _____ _____    ______ ____
ROOT
ATOM      1  C   UNL     1      12.724  -0.516   5.115  1.00  0.00    +0.000 C 
ATOM      2  C   UNL     1      12.508  -1.169   3.738  1.00  0.00    +0.000 C 
ATOM      3  C   UNL     1      12.182   0.020   2.798  1.00  0.00    +0.000 C 
ATOM      4  C   UNL     1      12.764   1.221   3.585  1.00  0.00    +0.000 C 
ATOM      5  O   UNL     1      12.485   0.892   4.962  1.00  0.00    +0.000 OA
ENDROOT
BRANCH   1   6
ATOM      6  O   UNL     1      11.806  -1.065   6.062  1.00  0.00    +0.000 OA
ATOM      7  H   UNL     1      11.708  -0.411   6.768  1.00  0.00    +0.000 HD
ENDBRANCH   1   6
BRANCH   2   8
ATOM      8  O   UNL     1      11.416  -2.088   3.784  1.00  0.00    +0.000 OA
ATOM      9  H   UNL     1      10.756  -1.771   3.154  1.00  0.00    +0.000 HD
ENDBRANCH   2   8
BRANCH   3  10
ATOM     10  O   UNL     1      12.834  -0.134   1.536  1.00  0.00    +0.000 OA
ATOM     11  H   UNL     1      13.521   0.546   1.493  1.00  0.00    +0.000 HD
ENDBRANCH   3  10
BRANCH   1  12
ATOM     12  C   UNL     1      14.160  -0.751   5.587  1.00  0.00    +0.000 C 
BRANCH  12  13
ATOM     13  O   UNL     1      14.936  -1.278   4.508  1.00  0.00    +0.000 OA
ATOM     14  H   UNL     1      15.740  -1.645   4.896  1.00  0.00    +0.000 HD
ENDBRANCH  12  13
ENDBRANCH   1  12
BRANCH   4  15
ATOM     15  C   UNL     1      12.059   2.518   3.186  1.00  0.00    +0.000 C 
BRANCH  15  16
ATOM     16  O   UNL     1      11.339   2.315   1.968  1.00  0.00    +0.000 OA
ATOM     17  H   UNL     1      10.501   2.790   2.056  1.00  0.00    +0.000 HD
ENDBRANCH  15  16
ENDBRANCH   4  15
TORSDOF 7
ENDMDL
MODEL 8
REMARK VINA RESULT:    -4.569     12.757     14.413
REMARK INTER + INTRA:          -5.991
REMARK INTER:                  -5.646
REMARK INTRA:                  -0.345
REMARK UNBOUND:                -0.220
REMARK  Name = FRU
REMARK  7 active torsions:
REMARK  status: ('A' for Active; 'I' for Inactive)
REMARK    1  A    between atoms: C_1  and  C_2
REMARK    2  A    between atoms: C_1  and  O_7
REMARK    3  A    between atoms: C_2  and  O_8
REMARK    4  A    between atoms: C_3  and  O_9
REMARK    5  A    between atoms: C_4  and  O_10
REMARK    6  A    between atoms: C_5  and  C_6
REMARK    7  A    between atoms: C_6  and  O_12
REMARK                            x       y       z     vdW  Elec       q    Type
REMARK                         _______ _______ _______ _____ _____    ______ ____
ROOT
ATOM      1  C   UNL     1      -8.083  -9.209   0.838  1.00  0.00    +0.000 C 
ATOM      2  C   UNL     1      -7.237  -8.795  -0.380  1.00  0.00    +0.000 C 
ATOM      3  C   UNL     1      -7.000 -10.119  -1.149  1.00  0.00    +0.000 C 
ATOM      4  C   UNL     1      -8.146 -11.013  -0.611  1.00  0.00    +0.000 C 
ATOM      5  O   UNL     1      -8.249 -10.634   0.778  1.00  0.00    +0.000 OA
ENDROOT
BRANCH   1   6
ATOM      6  O   UNL     1      -7.406  -8.849   2.043  1.00  0.00    +0.000 OA
ATOM      7  H   UNL     1      -6.499  -8.620   1.797  1.00  0.00    +0.000 HD
ENDBRANCH   1   6
BRANCH   2   8
ATOM      8  O   UNL     1      -5.995  -8.227   0.040  1.00  0.00    +0.000 OA
ATOM      9  H   UNL     1      -5.422  -8.964   0.292  1.00  0.00    +0.000 HD
ENDBRANCH   2   8
BRANCH   3  10
ATOM     10  O   UNL     1      -7.120  -9.920  -2.558  1.00  0.00    +0.000 OA
ATOM     11  H   UNL     1      -6.412  -9.314  -2.816  1.00  0.00    +0.000 HD
ENDBRANCH   3  10
BRANCH   1  12
ATOM     12  C   UNL     1      -9.448  -8.522   0.784  1.00  0.00    +0.000 C 
BRANCH  12  13
ATOM     13  O   UNL     1      -9.527  -7.708  -0.388  1.00  0.00    +0.000 OA
ATOM     14  H   UNL     1     -10.104  -8.169  -1.010  1.00  0.00    +0.000 HD
ENDBRANCH  12  13
ENDBRANCH   1  12
BRANCH   4  15
ATOM     15  C   UNL     1      -7.782 -12.492  -0.741  1.00  0.00    +0.000 C 
BRANCH  15  16
ATOM     16  O   UNL     1      -6.400 -12.615  -1.085  1.00  0.00    +0.000 OA
ATOM     17  H   UNL     1      -6.302 -12.262  -1.980  1.00  0.00    +0.000 HD
ENDBRANCH  15  16
ENDBRANCH   4  15
TORSDOF 7
ENDMDL
MODEL 9
REMARK VINA RESULT:    -4.441      9.504     11.104
REMARK INTER + INTRA:          -5.830
REMARK INTER:                  -5.482
REMARK INTRA:                  -0.348
REMARK UNBOUND:                -0.220
REMARK  Name = FRU
REMARK  7 active torsions:
REMARK  status: ('A' for Active; 'I' for Inactive)
REMARK    1  A    between atoms: C_1  and  C_2
REMARK    2  A    between atoms: C_1  and  O_7
REMARK    3  A    between atoms: C_2  and  O_8
REMARK    4  A    between atoms: C_3  and  O_9
REMARK    5  A    between atoms: C_4  and  O_10
REMARK    6  A    between atoms: C_5  and  C_6
REMARK    7  A    between atoms: C_6  and  O_12
REMARK                            x       y       z     vdW  Elec       q    Type
REMARK                         _______ _______ _______ _____ _____    ______ ____
ROOT
ATOM      1  C   UNL     1      14.978   1.806   2.385  1.00  0.00    +0.000 C 
ATOM      2  C   UNL     1      14.256   0.523   1.932  1.00  0.00    +0.000 C 
ATOM      3  C   UNL     1      12.931   0.527   2.736  1.00  0.00    +0.000 C 
ATOM      4  C   UNL     1      12.796   2.020   3.127  1.00  0.00    +0.000 C 
ATOM      5  O   UNL     1      14.156   2.429   3.384  1.00  0.00    +0.000 OA
ENDROOT
BRANCH   1   6
ATOM      6  O   UNL     1      16.252   1.475   2.940  1.00  0.00    +0.000 OA
ATOM      7  H   UNL     1      16.338   0.513   2.891  1.00  0.00    +0.000 HD
ENDBRANCH   1   6
BRANCH   2   8
ATOM      8  O   UNL     1      15.036  -0.631   2.252  1.00  0.00    +0.000 OA
ATOM      9  H   UNL     1      14.490  -1.188   2.823  1.00  0.00    +0.000 HD
ENDBRANCH   2   8
BRANCH   3  10
ATOM     10  O   UNL     1      11.838   0.107   1.919  1.00  0.00    +0.000 OA
ATOM     11  H   UNL     1      11.908   0.595   1.086  1.00  0.00    +0.000 HD
ENDBRANCH   3  10
BRANCH   1  12
ATOM     12  C   UNL     1      15.159   2.751   1.196  1.00  0.00    +0.000 C 
BRANCH  12  13
ATOM     13  O   UNL     1      15.080   2.007  -0.021  1.00  0.00    +0.000 OA
ATOM     14  H   UNL     1      15.550   1.176   0.128  1.00  0.00    +0.000 HD
ENDBRANCH  12  13
ENDBRANCH   1  12
BRANCH   4  15
ATOM     15  C   UNL     1      11.940   2.172   4.384  1.00  0.00    +0.000 C 
BRANCH  15  16
ATOM     16  O   UNL     1      11.592   0.879   4.885  1.00  0.00    +0.000 OA
ATOM     17  H   UNL     1      12.089   0.235   4.363  1.00  0.00    +0.000 HD
ENDBRANCH  15  16
ENDBRANCH   4  15
TORSDOF 7
ENDMDL
