MODEL 1
REMARK VINA RESULT:    -5.727      0.000      0.000
REMARK INTER + INTRA:          -7.452
REMARK INTER:                  -7.233
REMARK INTRA:                  -0.219
REMARK UNBOUND:                -0.219
REMARK  Name = FRU
REMARK  7 active torsions:
REMARK  status: ('A' for Active; 'I' for Inactive)
REMARK    1  A    between atoms: C_1  and  C_2
REMARK    2  A    between atoms: C_1  and  O_7
REMARK    3  A    between atoms: C_2  and  O_8
REMARK    4  A    between atoms: C_3  and  O_9
REMARK    5  A    between atoms: C_4  and  O_10
REMARK    6  A    between atoms: C_5  and  C_6
REMARK    7  A    between atoms: C_6  and  O_12
REMARK                            x       y       z     vdW  Elec       q    Type
REMARK                         _______ _______ _______ _____ _____    ______ ____
ROOT
ATOM      1  C   UNL     1       4.080  -1.322   2.348  1.00  0.00    +0.000 C 
ATOM      2  C   UNL     1       2.820  -2.141   2.013  1.00  0.00    +0.000 C 
ATOM      3  C   UNL     1       3.074  -2.663   0.576  1.00  0.00    +0.000 C 
ATOM      4  C   UNL     1       4.615  -2.552   0.461  1.00  0.00    +0.000 C 
ATOM      5  O   UNL     1       4.925  -1.343   1.186  1.00  0.00    +0.000 OA
ENDROOT
BRANCH   1   6
ATOM      6  O   UNL     1       3.716   0.024   2.659  1.00  0.00    +0.000 OA
ATOM      7  H   UNL     1       3.112  -0.017   3.414  1.00  0.00    +0.000 HD
ENDBRANCH   1   6
BRANCH   2   8
ATOM      8  O   UNL     1       1.658  -1.311   2.049  1.00  0.00    +0.000 OA
ATOM      9  H   UNL     1       1.362  -1.204   1.135  1.00  0.00    +0.000 HD
ENDBRANCH   2   8
BRANCH   3  10
ATOM     10  O   UNL     1       2.644  -4.018   0.442  1.00  0.00    +0.000 OA
ATOM     11  H   UNL     1       1.678  -4.011   0.493  1.00  0.00    +0.000 HD
ENDBRANCH   3  10
BRANCH   1  12
ATOM     12  C   UNL     1       4.813  -1.949   3.534  1.00  0.00    +0.000 C 
BRANCH  12  13
ATOM     13  O   UNL     1       5.492  -0.929   4.269  1.00  0.00    +0.000 OA
ATOM     14  H   UNL     1       4.874  -0.193   4.362  1.00  0.00    +0.000 HD
ENDBRANCH  12  13
ENDBRANCH   1  12
BRANCH   4  15
ATOM     15  C   UNL     1       5.039  -2.427  -1.003  1.00  0.00    +0.000 C 
BRANCH  15  16
ATOM     16  O   UNL     1       5.055  -3.723  -1.607  1.00  0.00    +0.000 OA
ATOM     17  H   UNL     1       5.967  -4.040  -1.566  1.00  0.00    +0.000 HD
ENDBRANCH  15  16
ENDBRANCH   4  15
TORSDOF 7
ENDMDL
MODEL 2
REMARK VINA RESULT:    -5.356      1.467      4.199
REMARK INTER + INTRA:          -6.984
REMARK INTER:                  -6.705
REMARK INTRA:                  -0.279
REMARK UNBOUND:                -0.219
REMARK  Name = FRU
REMARK  7 active torsions:
REMARK  status: ('A' for Active; 'I' for Inactive)
REMARK    1  A    between atoms: C_1  and  C_2
REMARK    2  A    between atoms: C_1  and  O_7
REMARK    3  A    between atoms: C_2  and  O_8
REMARK    4  A    between atoms: C_3  and  O_9
REMARK    5  A    between atoms: C_4  and  O_10
REMARK    6  A    between atoms: C_5  and  C_6
REMARK    7  A    between atoms: C_6  and  O_12
REMARK                            x       y       z     vdW  Elec       q    Type
REMARK                         _______ _______ _______ _____ _____    ______ ____
ROOT
ATOM      1  C   UNL     1       3.776  -2.597  -0.358  1.00  0.00    +0.000 C 
ATOM      2  C   UNL     1       3.748  -1.124   0.090  1.00  0.00    +0.000 C 
ATOM      3  C   UNL     1       3.126  -1.168   1.509  1.00  0.00    +0.000 C 
ATOM      4  C   UNL     1       3.364  -2.642   1.920  1.00  0.00    +0.000 C 
ATOM      5  O   UNL     1       3.174  -3.373   0.690  1.00  0.00    +0.000 OA
ENDROOT
BRANCH   1   6
ATOM      6  O   UNL     1       3.030  -2.751  -1.567  1.00  0.00    +0.000 OA
ATOM      7  H   UNL     1       2.297  -3.349  -1.368  1.00  0.00    +0.000 HD
ENDBRANCH   1   6
BRANCH   2   8
ATOM      8  O   UNL     1       2.938  -0.346  -0.792  1.00  0.00    +0.000 OA
ATOM      9  H   UNL     1       3.296  -0.469  -1.682  1.00  0.00    +0.000 HD
ENDBRANCH   2   8
BRANCH   3  10
ATOM     10  O   UNL     1       3.802  -0.271   2.391  1.00  0.00    +0.000 OA
ATOM     11  H   UNL     1       3.808   0.595   1.958  1.00  0.00    +0.000 HD
ENDBRANCH   3  10
BRANCH   1  12
ATOM     12  C   UNL     1       5.220  -3.051  -0.577  1.00  0.00    +0.000 C 
BRANCH  12  13
ATOM     13  O   UNL     1       5.323  -3.722  -1.835  1.00  0.00    +0.000 OA
ATOM     14  H   UNL     1       6.252  -3.958  -1.950  1.00  0.00    +0.000 HD
ENDBRANCH  12  13
ENDBRANCH   1  12
BRANCH   4  15
ATOM     15  C   UNL     1       2.344  -3.080   2.971  1.00  0.00    +0.000 C 
BRANCH  15  16
ATOM     16  O   UNL     1       1.532  -1.964   3.341  1.00  0.00    +0.000 OA
ATOM     17  H   UNL     1       0.842  -2.302   3.929  1.00  0.00    +0.000 HD
ENDBRANCH  15  16
ENDBRANCH   4  15
TORSDOF 7
ENDMDL
MODEL 3
REMARK VINA RESULT:    -5.286      1.268      3.923
REMARK INTER + INTRA:          -6.895
REMARK INTER:                  -6.755
REMARK INTRA:                  -0.140
REMARK UNBOUND:                -0.219
REMARK  Name = FRU
REMARK  7 active torsions:
REMARK  status: ('A' for Active; 'I' for Inactive)
REMARK    1  A    between atoms: C_1  and  C_2
REMARK    2  A    between atoms: C_1  and  O_7
REMARK    3  A    between atoms: C_2  and  O_8
REMARK    4  A    between atoms: C_3  and  O_9
REMARK    5  A    between atoms: C_4  and  O_10
REMARK    6  A    between atoms: C_5  and  C_6
REMARK    7  A    between atoms: C_6  and  O_12
REMARK                            x       y       z     vdW  Elec       q    Type
REMARK                         _______ _______ _______ _____ _____    ______ ____
ROOT
ATOM      1  C   UNL     1       4.174  -2.248   0.032  1.00  0.00    +0.000 C 
ATOM      2  C   UNL     1       2.912  -2.755   0.754  1.00  0.00    +0.000 C 
ATOM      3  C   UNL     1       3.263  -2.647   2.259  1.00  0.00    +0.000 C 
ATOM      4  C   UNL     1       4.423  -1.620   2.246  1.00  0.00    +0.000 C 
ATOM      5  O   UNL     1       5.149  -1.942   1.041  1.00  0.00    +0.000 OA
ENDROOT
BRANCH   1   6
ATOM      6  O   UNL     1       4.677  -3.263  -0.838  1.00  0.00    +0.000 OA
ATOM      7  H   UNL     1       3.919  -3.616  -1.324  1.00  0.00    +0.000 HD
ENDBRANCH   1   6
BRANCH   2   8
ATOM      8  O   UNL     1       2.640  -4.111   0.395  1.00  0.00    +0.000 OA
ATOM      9  H   UNL     1       2.984  -4.663   1.110  1.00  0.00    +0.000 HD
ENDBRANCH   2   8
BRANCH   3  10
ATOM     10  O   UNL     1       2.150  -2.158   3.009  1.00  0.00    +0.000 OA
ATOM     11  H   UNL     1       1.909  -1.302   2.625  1.00  0.00    +0.000 HD
ENDBRANCH   3  10
BRANCH   1  12
ATOM     12  C   UNL     1       3.847  -0.990  -0.773  1.00  0.00    +0.000 C 
BRANCH  12  13
ATOM     13  O   UNL     1       2.461  -0.993  -1.120  1.00  0.00    +0.000 OA
ATOM     14  H   UNL     1       1.978  -0.670  -0.347  1.00  0.00    +0.000 HD
ENDBRANCH  12  13
ENDBRANCH   1  12
BRANCH   4  15
ATOM     15  C   UNL     1       5.313  -1.798   3.477  1.00  0.00    +0.000 C 
BRANCH  15  16
ATOM     16  O   UNL     1       5.304  -0.595   4.249  1.00  0.00    +0.000 OA
ATOM     17  H   UNL     1       5.837   0.052   3.767  1.00  0.00    +0.000 HD
ENDBRANCH  15  16
ENDBRANCH   4  15
TORSDOF 7
ENDMDL
MODEL 4
REMARK VINA RESULT:    -5.030      1.726      2.338
REMARK INTER + INTRA:          -6.572
REMARK INTER:                  -6.408
REMARK INTRA:                  -0.164
REMARK UNBOUND:                -0.219
REMARK  Name = FRU
REMARK  7 active torsions:
REMARK  status: ('A' for Active; 'I' for Inactive)
REMARK    1  A    between atoms: C_1  and  C_2
REMARK    2  A    between atoms: C_1  and  O_7
REMARK    3  A    between atoms: C_2  and  O_8
REMARK    4  A    between atoms: C_3  and  O_9
REMARK    5  A    between atoms: C_4  and  O_10
REMARK    6  A    between atoms: C_5  and  C_6
REMARK    7  A    between atoms: C_6  and  O_12
REMARK                            x       y       z     vdW  Elec       q    Type
REMARK                         _______ _______ _______ _____ _____    ______ ____
ROOT
ATOM      1  C   UNL     1       2.562  -2.019   2.086  1.00  0.00    +0.000 C 
ATOM      2  C   UNL     1       2.240  -2.074   0.581  1.00  0.00    +0.000 C 
ATOM      3  C   UNL     1       3.621  -1.949  -0.110  1.00  0.00    +0.000 C 
ATOM      4  C   UNL     1       4.588  -2.372   1.023  1.00  0.00    +0.000 C 
ATOM      5  O   UNL     1       3.979  -1.825   2.212  1.00  0.00    +0.000 OA
ENDROOT
BRANCH   1   6
ATOM      6  O   UNL     1       1.865  -0.929   2.691  1.00  0.00    +0.000 OA
ATOM      7  H   UNL     1       1.934  -1.050   3.648  1.00  0.00    +0.000 HD
ENDBRANCH   1   6
BRANCH   2   8
ATOM      8  O   UNL     1       1.390  -0.988   0.210  1.00  0.00    +0.000 OA
ATOM      9  H   UNL     1       0.903  -1.270  -0.576  1.00  0.00    +0.000 HD
ENDBRANCH   2   8
BRANCH   3  10
ATOM     10  O   UNL     1       3.716  -2.835  -1.226  1.00  0.00    +0.000 OA
ATOM     11  H   UNL     1       4.539  -3.333  -1.119  1.00  0.00    +0.000 HD
ENDBRANCH   3  10
BRANCH   1  12
ATOM     12  C   UNL     1       2.154  -3.332   2.756  1.00  0.00    +0.000 C 
BRANCH  12  13
ATOM     13  O   UNL     1       2.157  -3.163   4.175  1.00  0.00    +0.000 OA
ATOM     14  H   UNL     1       1.301  -2.782   4.413  1.00  0.00    +0.000 HD
ENDBRANCH  12  13
ENDBRANCH   1  12
BRANCH   4  15
ATOM     15  C   UNL     1       5.976  -1.769   0.802  1.00  0.00    +0.000 C 
BRANCH  15  16
ATOM     16  O   UNL     1       5.862  -0.594  -0.004  1.00  0.00    +0.000 OA
ATOM     17  H   UNL     1       6.753  -0.376  -0.309  1.00  0.00    +0.000 HD
ENDBRANCH  15  16
ENDBRANCH   4  15
TORSDOF 7
ENDMDL
MODEL 5
REMARK VINA RESULT:    -4.944      1.401      4.245
REMARK INTER + INTRA:          -6.463
REMARK INTER:                  -6.187
REMARK INTRA:                  -0.276
REMARK UNBOUND:                -0.219
REMARK  Name = FRU
REMARK  7 active torsions:
REMARK  status: ('A' for Active; 'I' for Inactive)
REMARK    1  A    between atoms: C_1  and  C_2
REMARK    2  A    between atoms: C_1  and  O_7
REMARK    3  A    between atoms: C_2  and  O_8
REMARK    4  A    between atoms: C_3  and  O_9
REMARK    5  A    between atoms: C_4  and  O_10
REMARK    6  A    between atoms: C_5  and  C_6
REMARK    7  A    between atoms: C_6  and  O_12
REMARK                            x       y       z     vdW  Elec       q    Type
REMARK                         _______ _______ _______ _____ _____    ______ ____
ROOT
ATOM      1  C   UNL     1       3.931  -2.144  -0.324  1.00  0.00    +0.000 C 
ATOM      2  C   UNL     1       4.865  -1.598   0.772  1.00  0.00    +0.000 C 
ATOM      3  C   UNL     1       3.927  -1.338   1.978  1.00  0.00    +0.000 C 
ATOM      4  C   UNL     1       2.712  -2.239   1.642  1.00  0.00    +0.000 C 
ATOM      5  O   UNL     1       2.597  -2.133   0.207  1.00  0.00    +0.000 OA
ENDROOT
BRANCH   1   6
ATOM      6  O   UNL     1       4.001  -1.309  -1.481  1.00  0.00    +0.000 OA
ATOM      7  H   UNL     1       4.329  -1.861  -2.204  1.00  0.00    +0.000 HD
ENDBRANCH   1   6
BRANCH   2   8
ATOM      8  O   UNL     1       5.485  -0.384   0.345  1.00  0.00    +0.000 OA
ATOM      9  H   UNL     1       4.921  -0.010  -0.345  1.00  0.00    +0.000 HD
ENDBRANCH   2   8
BRANCH   3  10
ATOM     10  O   UNL     1       4.544  -1.741   3.201  1.00  0.00    +0.000 OA
ATOM     11  H   UNL     1       4.772  -0.931   3.680  1.00  0.00    +0.000 HD
ENDBRANCH   3  10
BRANCH   1  12
ATOM     12  C   UNL     1       4.334  -3.574  -0.690  1.00  0.00    +0.000 C 
BRANCH  12  13
ATOM     13  O   UNL     1       5.188  -3.550  -1.835  1.00  0.00    +0.000 OA
ATOM     14  H   UNL     1       6.092  -3.450  -1.507  1.00  0.00    +0.000 HD
ENDBRANCH  12  13
ENDBRANCH   1  12
BRANCH   4  15
ATOM     15  C   UNL     1       1.448  -1.717   2.325  1.00  0.00    +0.000 C 
BRANCH  15  16
ATOM     16  O   UNL     1       1.735  -0.478   2.978  1.00  0.00    +0.000 OA
ATOM     17  H   UNL     1       2.140  -0.696   3.828  1.00  0.00    +0.000 HD
ENDBRANCH  15  16
ENDBRANCH   4  15
TORSDOF 7
ENDMDL
MODEL 6
REMARK VINA RESULT:    -4.880      1.257      2.751
REMARK INTER + INTRA:          -6.382
REMARK INTER:                  -6.069
REMARK INTRA:                  -0.313
REMARK UNBOUND:                -0.219
REMARK  Name = FRU
REMARK  7 active torsions:
REMARK  status: ('A' for Active; 'I' for Inactive)
REMARK    1  A    between atoms: C_1  and  C_2
REMARK    2  A    between atoms: C_1  and  O_7
REMARK    3  A    between atoms: C_2  and  O_8
REMARK    4  A    between atoms: C_3  and  O_9
REMARK    5  A    between atoms: C_4  and  O_10
REMARK    6  A    between atoms: C_5  and  C_6
REMARK    7  A    between atoms: C_6  and  O_12
REMARK                            x       y       z     vdW  Elec       q    Type
REMARK                         _______ _______ _______ _____ _____    ______ ____
ROOT
ATOM      1  C   UNL     1       2.883  -2.271   2.287  1.00  0.00    +0.000 C 
ATOM      2  C   UNL     1       4.070  -1.291   2.233  1.00  0.00    +0.000 C 
ATOM      3  C   UNL     1       4.872  -1.731   0.982  1.00  0.00    +0.000 C 
ATOM      4  C   UNL     1       3.809  -2.524   0.181  1.00  0.00    +0.000 C 
ATOM      5  O   UNL     1       3.046  -3.199   1.203  1.00  0.00    +0.000 OA
ENDROOT
BRANCH   1   6
ATOM      6  O   UNL     1       2.890  -2.972   3.532  1.00  0.00    +0.000 OA
ATOM      7  H   UNL     1       2.213  -3.660   3.469  1.00  0.00    +0.000 HD
ENDBRANCH   1   6
BRANCH   2   8
ATOM      8  O   UNL     1       4.870  -1.406   3.411  1.00  0.00    +0.000 OA
ATOM      9  H   UNL     1       4.447  -0.864   4.090  1.00  0.00    +0.000 HD
ENDBRANCH   2   8
BRANCH   3  10
ATOM     10  O   UNL     1       5.332  -0.597   0.246  1.00  0.00    +0.000 OA
ATOM     11  H   UNL     1       5.176   0.179   0.803  1.00  0.00    +0.000 HD
ENDBRANCH   3  10
BRANCH   1  12
ATOM     12  C   UNL     1       1.567  -1.509   2.128  1.00  0.00    +0.000 C 
BRANCH  12  13
ATOM     13  O   UNL     1       1.558  -0.384   3.009  1.00  0.00    +0.000 OA
ATOM     14  H   UNL     1       2.107   0.297   2.599  1.00  0.00    +0.000 HD
ENDBRANCH  12  13
ENDBRANCH   1  12
BRANCH   4  15
ATOM     15  C   UNL     1       4.479  -3.536  -0.749  1.00  0.00    +0.000 C 
BRANCH  15  16
ATOM     16  O   UNL     1       5.477  -2.877  -1.532  1.00  0.00    +0.000 OA
ATOM     17  H   UNL     1       6.296  -2.899  -1.019  1.00  0.00    +0.000 HD
ENDBRANCH  15  16
ENDBRANCH   4  15
TORSDOF 7
ENDMDL
MODEL 7
REMARK VINA RESULT:    -4.721      8.481      9.582
REMARK INTER + INTRA:          -6.182
REMARK INTER:                  -5.861
REMARK INTRA:                  -0.321
REMARK UNBOUND:                -0.219
REMARK  Name = FRU
REMARK  7 active torsions:
REMARK  status: ('A' for Active; 'I' for Inactive)
REMARK    1  A    between atoms: C_1  and  C_2
REMARK    2  A    between atoms: C_1  and  O_7
REMARK    3  A    between atoms: C_2  and  O_8
REMARK    4  A    between atoms: C_3  and  O_9
REMARK    5  A    between atoms: C_4  and  O_10
REMARK    6  A    between atoms: C_5  and  C_6
REMARK    7  A    between atoms: C_6  and  O_12
REMARK                            x       y       z     vdW  Elec       q    Type
REMARK                         _______ _______ _______ _____ _____    ______ ____
ROOT
ATOM      1  C   UNL     1      12.750  -0.530   5.071  1.00  0.00    +0.000 C 
ATOM      2  C   UNL     1      12.489  -1.166   3.693  1.00  0.00    +0.000 C 
ATOM      3  C   UNL     1      12.151   0.036   2.776  1.00  0.00    +0.000 C 
ATOM      4  C   UNL     1      12.766   1.223   3.559  1.00  0.00    +0.000 C 
ATOM      5  O   UNL     1      12.521   0.882   4.940  1.00  0.00    +0.000 OA
ENDROOT
BRANCH   1   6
ATOM      6  O   UNL     1      11.852  -1.080   6.037  1.00  0.00    +0.000 OA
ATOM      7  H   UNL     1      11.189  -0.400   6.221  1.00  0.00    +0.000 HD
ENDBRANCH   1   6
BRANCH   2   8
ATOM      8  O   UNL     1      11.389  -2.075   3.760  1.00  0.00    +0.000 OA
ATOM      9  H   UNL     1      11.399  -2.586   2.940  1.00  0.00    +0.000 HD
ENDBRANCH   2   8
BRANCH   3  10
ATOM     10  O   UNL     1      12.766  -0.110   1.495  1.00  0.00    +0.000 OA
ATOM     11  H   UNL     1      13.367   0.641   1.386  1.00  0.00    +0.000 HD
ENDBRANCH   3  10
BRANCH   1  12
ATOM     12  C   UNL     1      14.195  -0.785   5.501  1.00  0.00    +0.000 C 
BRANCH  12  13
ATOM     13  O   UNL     1      14.949  -1.254   4.382  1.00  0.00    +0.000 OA
ATOM     14  H   UNL     1      14.389  -1.886   3.912  1.00  0.00    +0.000 HD
ENDBRANCH  12  13
ENDBRANCH   1  12
BRANCH   4  15
ATOM     15  C   UNL     1      12.064   2.531   3.194  1.00  0.00    +0.000 C 
BRANCH  15  16
ATOM     16  O   UNL     1      11.365   2.369   1.958  1.00  0.00    +0.000 OA
ATOM     17  H   UNL     1      11.915   1.806   1.397  1.00  0.00    +0.000 HD
ENDBRANCH  15  16
ENDBRANCH   4  15
TORSDOF 7
ENDMDL
MODEL 8
REMARK VINA RESULT:    -4.632     12.739     14.395
REMARK INTER + INTRA:          -6.069
REMARK INTER:                  -5.728
REMARK INTRA:                  -0.341
REMARK UNBOUND:                -0.219
REMARK  Name = FRU
REMARK  7 active torsions:
REMARK  status: ('A' for Active; 'I' for Inactive)
REMARK    1  A    between atoms: C_1  and  C_2
REMARK    2  A    between atoms: C_1  and  O_7
REMARK    3  A    between atoms: C_2  and  O_8
REMARK    4  A    between atoms: C_3  and  O_9
REMARK    5  A    between atoms: C_4  and  O_10
REMARK    6  A    between atoms: C_5  and  C_6
REMARK    7  A    between atoms: C_6  and  O_12
REMARK                            x       y       z     vdW  Elec       q    Type
REMARK                         _______ _______ _______ _____ _____    ______ ____
ROOT
ATOM      1  C   UNL     1      -8.007  -9.198   0.875  1.00  0.00    +0.000 C 
ATOM      2  C   UNL     1      -7.220  -8.780  -0.380  1.00  0.00    +0.000 C 
ATOM      3  C   UNL     1      -7.024 -10.102  -1.166  1.00  0.00    +0.000 C 
ATOM      4  C   UNL     1      -8.145 -10.995  -0.578  1.00  0.00    +0.000 C 
ATOM      5  O   UNL     1      -8.180 -10.623   0.817  1.00  0.00    +0.000 OA
ENDROOT
BRANCH   1   6
ATOM      6  O   UNL     1      -7.271  -8.846   2.048  1.00  0.00    +0.000 OA
ATOM      7  H   UNL     1      -7.899  -8.436   2.659  1.00  0.00    +0.000 HD
ENDBRANCH   1   6
BRANCH   2   8
ATOM      8  O   UNL     1      -5.957  -8.218  -0.018  1.00  0.00    +0.000 OA
ATOM      9  H   UNL     1      -5.769  -7.518  -0.657  1.00  0.00    +0.000 HD
ENDBRANCH   2   8
BRANCH   3  10
ATOM     10  O   UNL     1      -7.212  -9.895  -2.567  1.00  0.00    +0.000 OA
ATOM     11  H   UNL     1      -6.331  -9.868  -2.966  1.00  0.00    +0.000 HD
ENDBRANCH   3  10
BRANCH   1  12
ATOM     12  C   UNL     1      -9.371  -8.508   0.891  1.00  0.00    +0.000 C 
BRANCH  12  13
ATOM     13  O   UNL     1      -9.545  -7.767  -0.318  1.00  0.00    +0.000 OA
ATOM     14  H   UNL     1      -8.701  -7.796  -0.787  1.00  0.00    +0.000 HD
ENDBRANCH  12  13
ENDBRANCH   1  12
BRANCH   4  15
ATOM     15  C   UNL     1      -7.792 -12.474  -0.732  1.00  0.00    +0.000 C 
BRANCH  15  16
ATOM     16  O   UNL     1      -6.434 -12.599  -1.158  1.00  0.00    +0.000 OA
ATOM     17  H   UNL     1      -6.139 -11.715  -1.417  1.00  0.00    +0.000 HD
ENDBRANCH  15  16
ENDBRANCH   4  15
TORSDOF 7
ENDMDL
MODEL 9
REMARK VINA RESULT:    -4.446      9.475     11.082
REMARK INTER + INTRA:          -5.834
REMARK INTER:                  -5.488
REMARK INTRA:                  -0.346
REMARK UNBOUND:                -0.219
REMARK  Name = FRU
REMARK  7 active torsions:
REMARK  status: ('A' for Active; 'I' for Inactive)
REMARK    1  A    between atoms: C_1  and  C_2
REMARK    2  A    between atoms: C_1  and  O_7
REMARK    3  A    between atoms: C_2  and  O_8
REMARK    4  A    between atoms: C_3  and  O_9
REMARK    5  A    between atoms: C_4  and  O_10
REMARK    6  A    between atoms: C_5  and  C_6
REMARK    7  A    between atoms: C_6  and  O_12
REMARK                            x       y       z     vdW  Elec       q    Type
REMARK                         _______ _______ _______ _____ _____    ______ ____
ROOT
ATOM      1  C   UNL     1      14.969   1.782   2.402  1.00  0.00    +0.000 C 
ATOM      2  C   UNL     1      14.249   0.504   1.933  1.00  0.00    +0.000 C 
ATOM      3  C   UNL     1      12.924   0.496   2.736  1.00  0.00    +0.000 C 
ATOM      4  C   UNL     1      12.787   1.984   3.146  1.00  0.00    +0.000 C 
ATOM      5  O   UNL     1      14.146   2.391   3.409  1.00  0.00    +0.000 OA
ENDROOT
BRANCH   1   6
ATOM      6  O   UNL     1      16.244   1.446   2.953  1.00  0.00    +0.000 OA
ATOM      7  H   UNL     1      16.239   0.491   3.108  1.00  0.00    +0.000 HD
ENDBRANCH   1   6
BRANCH   2   8
ATOM      8  O   UNL     1      15.030  -0.653   2.238  1.00  0.00    +0.000 OA
ATOM      9  H   UNL     1      15.400  -0.516   3.120  1.00  0.00    +0.000 HD
ENDBRANCH   2   8
BRANCH   3  10
ATOM     10  O   UNL     1      11.831   0.085   1.913  1.00  0.00    +0.000 OA
ATOM     11  H   UNL     1      12.063   0.321   1.004  1.00  0.00    +0.000 HD
ENDBRANCH   3  10
BRANCH   1  12
ATOM     12  C   UNL     1      15.150   2.743   1.226  1.00  0.00    +0.000 C 
BRANCH  12  13
ATOM     13  O   UNL     1      15.055   2.017  -0.002  1.00  0.00    +0.000 OA
ATOM     14  H   UNL     1      14.320   2.399  -0.497  1.00  0.00    +0.000 HD
ENDBRANCH  12  13
ENDBRANCH   1  12
BRANCH   4  15
ATOM     15  C   UNL     1      11.930   2.119   4.405  1.00  0.00    +0.000 C 
BRANCH  15  16
ATOM     16  O   UNL     1      11.606   0.819   4.904  1.00  0.00    +0.000 OA
ATOM     17  H   UNL     1      10.709   0.621   4.606  1.00  0.00    +0.000 HD
ENDBRANCH  15  16
ENDBRANCH   4  15
TORSDOF 7
ENDMDL
