MODEL 1
REMARK VINA RESULT:    -6.087      0.000      0.000
REMARK INTER + INTRA:          -7.154
REMARK INTER:                  -7.154
REMARK INTRA:                   0.000
REMARK UNBOUND:                 0.000
REMARK  Name = INS
REMARK  6 active torsions:
REMARK  status: ('A' for Active; 'I' for Inactive)
REMARK    1  A    between atoms: C_1  and  O_7
REMARK    2  A    between atoms: C_2  and  O_8
REMARK    3  A    between atoms: C_3  and  O_9
REMARK    4  A    between atoms: C_4  and  O_10
REMARK    5  A    between atoms: C_5  and  O_11
REMARK    6  A    between atoms: C_6  and  O_12
REMARK                            x       y       z     vdW  Elec       q    Type
REMARK                         _______ _______ _______ _____ _____    ______ ____
ROOT
ATOM      1  C   UNL     1       2.194  -1.681   0.554  1.00  0.00    +0.000 C 
ATOM      2  C   UNL     1       3.053  -2.562  -0.356  1.00  0.00    +0.000 C 
ATOM      3  C   UNL     1       4.491  -2.041  -0.360  1.00  0.00    +0.000 C 
ATOM      4  C   UNL     1       5.051  -2.078   1.064  1.00  0.00    +0.000 C 
ATOM      5  C   UNL     1       4.192  -1.197   1.973  1.00  0.00    +0.000 C 
ATOM      6  C   UNL     1       2.753  -1.718   1.977  1.00  0.00    +0.000 C 
ENDROOT
BRANCH   1   7
ATOM      7  O   UNL     1       0.850  -2.167   0.557  1.00  0.00    +0.000 OA
ATOM      8  H   UNL     1       0.336  -1.899   1.332  1.00  0.00    +0.000 HD
ENDBRANCH   1   7
BRANCH   2   9
ATOM      9  O   UNL     1       3.035  -3.906   0.128  1.00  0.00    +0.000 OA
ATOM     10  H   UNL     1       3.640  -4.067   0.865  1.00  0.00    +0.000 HD
ENDBRANCH   2   9
BRANCH   3  11
ATOM     11  O   UNL     1       5.293  -2.863  -1.209  1.00  0.00    +0.000 OA
ATOM     12  H   UNL     1       4.787  -3.504  -1.728  1.00  0.00    +0.000 HD
ENDBRANCH   3  11
BRANCH   4  13
ATOM     13  O   UNL     1       6.395  -1.591   1.060  1.00  0.00    +0.000 OA
ATOM     14  H   UNL     1       6.891  -1.811   0.259  1.00  0.00    +0.000 HD
ENDBRANCH   4  13
BRANCH   5  15
ATOM     15  O   UNL     1       4.715  -1.232   3.303  1.00  0.00    +0.000 OA
ATOM     16  H   UNL     1       4.073  -1.506   3.971  1.00  0.00    +0.000 HD
ENDBRANCH   5  15
BRANCH   6  17
ATOM     17  O   UNL     1       1.951  -0.896   2.826  1.00  0.00    +0.000 OA
ATOM     18  H   UNL     1       1.311  -1.387   3.360  1.00  0.00    +0.000 HD
ENDBRANCH   6  17
TORSDOF 6
ENDMDL
MODEL 2
REMARK VINA RESULT:    -6.010      0.964      3.278
REMARK INTER + INTRA:          -7.064
REMARK INTER:                  -7.064
REMARK INTRA:                   0.000
REMARK UNBOUND:                 0.000
REMARK  Name = INS
REMARK  6 active torsions:
REMARK  status: ('A' for Active; 'I' for Inactive)
REMARK    1  A    between atoms: C_1  and  O_7
REMARK    2  A    between atoms: C_2  and  O_8
REMARK    3  A    between atoms: C_3  and  O_9
REMARK    4  A    between atoms: C_4  and  O_10
REMARK    5  A    between atoms: C_5  and  O_11
REMARK    6  A    between atoms: C_6  and  O_12
REMARK                            x       y       z     vdW  Elec       q    Type
REMARK                         _______ _______ _______ _____ _____    ______ ____
ROOT
ATOM      1  C   UNL     1       4.547  -2.782  -0.029  1.00  0.00    +0.000 C 
ATOM      2  C   UNL     1       3.062  -2.663  -0.380  1.00  0.00    +0.000 C 
ATOM      3  C   UNL     1       2.226  -2.797   0.894  1.00  0.00    +0.000 C 
ATOM      4  C   UNL     1       2.609  -1.687   1.876  1.00  0.00    +0.000 C 
ATOM      5  C   UNL     1       4.094  -1.806   2.226  1.00  0.00    +0.000 C 
ATOM      6  C   UNL     1       4.931  -1.673   0.951  1.00  0.00    +0.000 C 
ENDROOT
BRANCH   1   7
ATOM      7  O   UNL     1       5.328  -2.657  -1.219  1.00  0.00    +0.000 OA
ATOM      8  H   UNL     1       4.926  -2.098  -1.898  1.00  0.00    +0.000 HD
ENDBRANCH   1   7
BRANCH   2   9
ATOM      9  O   UNL     1       2.815  -1.390  -0.979  1.00  0.00    +0.000 OA
ATOM     10  H   UNL     1       1.942  -1.310  -1.386  1.00  0.00    +0.000 HD
ENDBRANCH   2   9
BRANCH   3  11
ATOM     11  O   UNL     1       0.840  -2.686   0.567  1.00  0.00    +0.000 OA
ATOM     12  H   UNL     1       0.320  -3.472   0.787  1.00  0.00    +0.000 HD
ENDBRANCH   3  11
BRANCH   4  13
ATOM     13  O   UNL     1       1.828  -1.813   3.066  1.00  0.00    +0.000 OA
ATOM     14  H   UNL     1       2.021  -2.608   3.581  1.00  0.00    +0.000 HD
ENDBRANCH   4  13
BRANCH   5  15
ATOM     15  O   UNL     1       4.453  -0.770   3.142  1.00  0.00    +0.000 OA
ATOM     16  H   UNL     1       4.438  -1.042   4.070  1.00  0.00    +0.000 HD
ENDBRANCH   5  15
BRANCH   6  17
ATOM     17  O   UNL     1       6.317  -1.784   1.278  1.00  0.00    +0.000 OA
ATOM     18  H   UNL     1       6.874  -2.067   0.539  1.00  0.00    +0.000 HD
ENDBRANCH   6  17
TORSDOF 6
ENDMDL
MODEL 3
REMARK VINA RESULT:    -5.967      1.205      2.962
REMARK INTER + INTRA:          -7.014
REMARK INTER:                  -7.014
REMARK INTRA:                   0.000
REMARK UNBOUND:                 0.000
REMARK  Name = INS
REMARK  6 active torsions:
REMARK  status: ('A' for Active; 'I' for Inactive)
REMARK    1  A    between atoms: C_1  and  O_7
REMARK    2  A    between atoms: C_2  and  O_8
REMARK    3  A    between atoms: C_3  and  O_9
REMARK    4  A    between atoms: C_4  and  O_10
REMARK    5  A    between atoms: C_5  and  O_11
REMARK    6  A    between atoms: C_6  and  O_12
REMARK                            x       y       z     vdW  Elec       q    Type
REMARK                         _______ _______ _______ _____ _____    ______ ____
ROOT
ATOM      1  C   UNL     1       2.820  -2.599   2.263  1.00  0.00    +0.000 C 
ATOM      2  C   UNL     1       4.221  -2.009   2.441  1.00  0.00    +0.000 C 
ATOM      3  C   UNL     1       5.000  -2.145   1.132  1.00  0.00    +0.000 C 
ATOM      4  C   UNL     1       4.267  -1.391   0.020  1.00  0.00    +0.000 C 
ATOM      5  C   UNL     1       2.866  -1.981  -0.158  1.00  0.00    +0.000 C 
ATOM      6  C   UNL     1       2.086  -1.846   1.153  1.00  0.00    +0.000 C 
ENDROOT
BRANCH   1   7
ATOM      7  O   UNL     1       2.092  -2.473   3.486  1.00  0.00    +0.000 OA
ATOM      8  H   UNL     1       1.685  -1.605   3.615  1.00  0.00    +0.000 HD
ENDBRANCH   1   7
BRANCH   2   9
ATOM      9  O   UNL     1       4.115  -0.629   2.791  1.00  0.00    +0.000 OA
ATOM     10  H   UNL     1       3.653  -0.468   3.625  1.00  0.00    +0.000 HD
ENDBRANCH   2   9
BRANCH   3  11
ATOM     11  O   UNL     1       6.308  -1.595   1.297  1.00  0.00    +0.000 OA
ATOM     12  H   UNL     1       6.578  -1.493   2.221  1.00  0.00    +0.000 HD
ENDBRANCH   3  11
BRANCH   4  13
ATOM     13  O   UNL     1       4.995  -1.518  -1.203  1.00  0.00    +0.000 OA
ATOM     14  H   UNL     1       4.462  -1.826  -1.948  1.00  0.00    +0.000 HD
ENDBRANCH   4  13
BRANCH   5  15
ATOM     15  O   UNL     1       2.180  -1.277  -1.195  1.00  0.00    +0.000 OA
ATOM     16  H   UNL     1       2.751  -0.991  -1.921  1.00  0.00    +0.000 HD
ENDBRANCH   5  15
BRANCH   6  17
ATOM     17  O   UNL     1       0.778  -2.396   0.987  1.00  0.00    +0.000 OA
ATOM     18  H   UNL     1       0.742  -3.359   1.072  1.00  0.00    +0.000 HD
ENDBRANCH   6  17
TORSDOF 6
ENDMDL
MODEL 4
REMARK VINA RESULT:    -5.799      1.146      2.181
REMARK INTER + INTRA:          -6.816
REMARK INTER:                  -6.816
REMARK INTRA:                   0.000
REMARK UNBOUND:                 0.000
REMARK  Name = INS
REMARK  6 active torsions:
REMARK  status: ('A' for Active; 'I' for Inactive)
REMARK    1  A    between atoms: C_1  and  O_7
REMARK    2  A    between atoms: C_2  and  O_8
REMARK    3  A    between atoms: C_3  and  O_9
REMARK    4  A    between atoms: C_4  and  O_10
REMARK    5  A    between atoms: C_5  and  O_11
REMARK    6  A    between atoms: C_6  and  O_12
REMARK                            x       y       z     vdW  Elec       q    Type
REMARK                         _______ _______ _______ _____ _____    ______ ____
ROOT
ATOM      1  C   UNL     1       2.568  -1.702   2.377  1.00  0.00    +0.000 C 
ATOM      2  C   UNL     1       1.999  -2.218   1.053  1.00  0.00    +0.000 C 
ATOM      3  C   UNL     1       2.753  -1.573  -0.111  1.00  0.00    +0.000 C 
ATOM      4  C   UNL     1       4.238  -1.932  -0.019  1.00  0.00    +0.000 C 
ATOM      5  C   UNL     1       4.807  -1.416   1.304  1.00  0.00    +0.000 C 
ATOM      6  C   UNL     1       4.052  -2.060   2.469  1.00  0.00    +0.000 C 
ENDROOT
BRANCH   1   7
ATOM      7  O   UNL     1       1.864  -2.303   3.465  1.00  0.00    +0.000 OA
ATOM      8  H   UNL     1       0.996  -2.657   3.225  1.00  0.00    +0.000 HD
ENDBRANCH   1   7
BRANCH   2   9
ATOM      9  O   UNL     1       2.151  -3.637   0.991  1.00  0.00    +0.000 OA
ATOM     10  H   UNL     1       1.684  -4.051   0.252  1.00  0.00    +0.000 HD
ENDBRANCH   2   9
BRANCH   3  11
ATOM     11  O   UNL     1       2.222  -2.055  -1.347  1.00  0.00    +0.000 OA
ATOM     12  H   UNL     1       2.589  -2.904  -1.628  1.00  0.00    +0.000 HD
ENDBRANCH   3  11
BRANCH   4  13
ATOM     13  O   UNL     1       4.942  -1.330  -1.108  1.00  0.00    +0.000 OA
ATOM     14  H   UNL     1       5.473  -0.562  -0.855  1.00  0.00    +0.000 HD
ENDBRANCH   4  13
BRANCH   5  15
ATOM     15  O   UNL     1       6.193  -1.751   1.391  1.00  0.00    +0.000 OA
ATOM     16  H   UNL     1       6.578  -1.612   2.266  1.00  0.00    +0.000 HD
ENDBRANCH   5  15
BRANCH   6  17
ATOM     17  O   UNL     1       4.583  -1.579   3.705  1.00  0.00    +0.000 OA
ATOM     18  H   UNL     1       3.939  -1.553   4.427  1.00  0.00    +0.000 HD
ENDBRANCH   6  17
TORSDOF 6
ENDMDL
MODEL 5
REMARK VINA RESULT:    -5.605      0.971      3.227
REMARK INTER + INTRA:          -6.589
REMARK INTER:                  -6.589
REMARK INTRA:                   0.000
REMARK UNBOUND:                 0.000
REMARK  Name = INS
REMARK  6 active torsions:
REMARK  status: ('A' for Active; 'I' for Inactive)
REMARK    1  A    between atoms: C_1  and  O_7
REMARK    2  A    between atoms: C_2  and  O_8
REMARK    3  A    between atoms: C_3  and  O_9
REMARK    4  A    between atoms: C_4  and  O_10
REMARK    5  A    between atoms: C_5  and  O_11
REMARK    6  A    between atoms: C_6  and  O_12
REMARK                            x       y       z     vdW  Elec       q    Type
REMARK                         _______ _______ _______ _____ _____    ______ ____
ROOT
ATOM      1  C   UNL     1       5.255  -2.122   1.477  1.00  0.00    +0.000 C 
ATOM      2  C   UNL     1       4.876  -2.083  -0.005  1.00  0.00    +0.000 C 
ATOM      3  C   UNL     1       3.452  -2.614  -0.181  1.00  0.00    +0.000 C 
ATOM      4  C   UNL     1       2.480  -1.741   0.617  1.00  0.00    +0.000 C 
ATOM      5  C   UNL     1       2.859  -1.780   2.099  1.00  0.00    +0.000 C 
ATOM      6  C   UNL     1       4.285  -1.250   2.275  1.00  0.00    +0.000 C 
ENDROOT
BRANCH   1   7
ATOM      7  O   UNL     1       6.585  -1.627   1.641  1.00  0.00    +0.000 OA
ATOM      8  H   UNL     1       7.256  -2.136   1.165  1.00  0.00    +0.000 HD
ENDBRANCH   1   7
BRANCH   2   9
ATOM      9  O   UNL     1       4.944  -0.738  -0.479  1.00  0.00    +0.000 OA
ATOM     10  H   UNL     1       4.869  -0.655  -1.440  1.00  0.00    +0.000 HD
ENDBRANCH   2   9
BRANCH   3  11
ATOM     11  O   UNL     1       3.097  -2.578  -1.564  1.00  0.00    +0.000 OA
ATOM     12  H   UNL     1       2.158  -2.413  -1.726  1.00  0.00    +0.000 HD
ENDBRANCH   3  11
BRANCH   4  13
ATOM     13  O   UNL     1       1.150  -2.237   0.453  1.00  0.00    +0.000 OA
ATOM     14  H   UNL     1       0.509  -1.856   1.071  1.00  0.00    +0.000 HD
ENDBRANCH   4  13
BRANCH   5  15
ATOM     15  O   UNL     1       1.953  -0.965   2.845  1.00  0.00    +0.000 OA
ATOM     16  H   UNL     1       1.958  -0.033   2.588  1.00  0.00    +0.000 HD
ENDBRANCH   5  15
BRANCH   6  17
ATOM     17  O   UNL     1       4.639  -1.286   3.658  1.00  0.00    +0.000 OA
ATOM     18  H   UNL     1       3.918  -1.557   4.243  1.00  0.00    +0.000 HD
ENDBRANCH   6  17
TORSDOF 6
ENDMDL
MODEL 6
REMARK VINA RESULT:    -5.467      0.993      3.705
REMARK INTER + INTRA:          -6.426
REMARK INTER:                  -6.426
REMARK INTRA:                   0.000
REMARK UNBOUND:                 0.000
REMARK  Name = INS
REMARK  6 active torsions:
REMARK  status: ('A' for Active; 'I' for Inactive)
REMARK    1  A    between atoms: C_1  and  O_7
REMARK    2  A    between atoms: C_2  and  O_8
REMARK    3  A    between atoms: C_3  and  O_9
REMARK    4  A    between atoms: C_4  and  O_10
REMARK    5  A    between atoms: C_5  and  O_11
REMARK    6  A    between atoms: C_6  and  O_12
REMARK                            x       y       z     vdW  Elec       q    Type
REMARK                         _______ _______ _______ _____ _____    ______ ____
ROOT
ATOM      1  C   UNL     1       4.378  -1.174   2.269  1.00  0.00    +0.000 C 
ATOM      2  C   UNL     1       2.913  -1.612   2.302  1.00  0.00    +0.000 C 
ATOM      3  C   UNL     1       2.305  -1.461   0.906  1.00  0.00    +0.000 C 
ATOM      4  C   UNL     1       3.077  -2.335  -0.084  1.00  0.00    +0.000 C 
ATOM      5  C   UNL     1       4.542  -1.897  -0.117  1.00  0.00    +0.000 C 
ATOM      6  C   UNL     1       5.150  -2.047   1.279  1.00  0.00    +0.000 C 
ENDROOT
BRANCH   1   7
ATOM      7  O   UNL     1       4.947  -1.314   3.573  1.00  0.00    +0.000 OA
ATOM      8  H   UNL     1       5.770  -1.821   3.591  1.00  0.00    +0.000 HD
ENDBRANCH   1   7
BRANCH   2   9
ATOM      9  O   UNL     1       2.834  -2.978   2.710  1.00  0.00    +0.000 OA
ATOM     10  H   UNL     1       2.108  -3.470   2.303  1.00  0.00    +0.000 HD
ENDBRANCH   2   9
BRANCH   3  11
ATOM     11  O   UNL     1       0.936  -1.870   0.937  1.00  0.00    +0.000 OA
ATOM     12  H   UNL     1       0.737  -2.526   1.619  1.00  0.00    +0.000 HD
ENDBRANCH   3  11
BRANCH   4  13
ATOM     13  O   UNL     1       2.508  -2.194  -1.388  1.00  0.00    +0.000 OA
ATOM     14  H   UNL     1       1.557  -2.365  -1.423  1.00  0.00    +0.000 HD
ENDBRANCH   4  13
BRANCH   5  15
ATOM     15  O   UNL     1       5.264  -2.712  -1.042  1.00  0.00    +0.000 OA
ATOM     16  H   UNL     1       5.629  -2.227  -1.794  1.00  0.00    +0.000 HD
ENDBRANCH   5  15
BRANCH   6  17
ATOM     17  O   UNL     1       6.519  -1.638   1.249  1.00  0.00    +0.000 OA
ATOM     18  H   UNL     1       6.800  -1.265   0.402  1.00  0.00    +0.000 HD
ENDBRANCH   6  17
TORSDOF 6
ENDMDL
MODEL 7
REMARK VINA RESULT:    -5.188      1.076      3.023
REMARK INTER + INTRA:          -6.098
REMARK INTER:                  -6.098
REMARK INTRA:                   0.000
REMARK UNBOUND:                 0.000
REMARK  Name = INS
REMARK  6 active torsions:
REMARK  status: ('A' for Active; 'I' for Inactive)
REMARK    1  A    between atoms: C_1  and  O_7
REMARK    2  A    between atoms: C_2  and  O_8
REMARK    3  A    between atoms: C_3  and  O_9
REMARK    4  A    between atoms: C_4  and  O_10
REMARK    5  A    between atoms: C_5  and  O_11
REMARK    6  A    between atoms: C_6  and  O_12
REMARK                            x       y       z     vdW  Elec       q    Type
REMARK                         _______ _______ _______ _____ _____    ______ ____
ROOT
ATOM      1  C   UNL     1       2.270  -2.254   1.321  1.00  0.00    +0.000 C 
ATOM      2  C   UNL     1       2.970  -1.706   2.566  1.00  0.00    +0.000 C 
ATOM      3  C   UNL     1       4.462  -2.037   2.498  1.00  0.00    +0.000 C 
ATOM      4  C   UNL     1       5.070  -1.398   1.248  1.00  0.00    +0.000 C 
ATOM      5  C   UNL     1       4.370  -1.946   0.002  1.00  0.00    +0.000 C 
ATOM      6  C   UNL     1       2.877  -1.616   0.071  1.00  0.00    +0.000 C 
ENDROOT
BRANCH   1   7
ATOM      7  O   UNL     1       0.876  -1.947   1.384  1.00  0.00    +0.000 OA
ATOM      8  H   UNL     1       0.369  -2.533   1.962  1.00  0.00    +0.000 HD
ENDBRANCH   1   7
BRANCH   2   9
ATOM      9  O   UNL     1       2.799  -0.290   2.623  1.00  0.00    +0.000 OA
ATOM     10  H   UNL     1       3.527   0.211   2.230  1.00  0.00    +0.000 HD
ENDBRANCH   2   9
BRANCH   3  11
ATOM     11  O   UNL     1       5.116  -1.526   3.661  1.00  0.00    +0.000 OA
ATOM     12  H   UNL     1       4.850  -0.627   3.898  1.00  0.00    +0.000 HD
ENDBRANCH   3  11
BRANCH   4  13
ATOM     13  O   UNL     1       6.465  -1.707   1.185  1.00  0.00    +0.000 OA
ATOM     14  H   UNL     1       6.846  -1.625   0.300  1.00  0.00    +0.000 HD
ENDBRANCH   4  13
BRANCH   5  15
ATOM     15  O   UNL     1       4.937  -1.350  -1.165  1.00  0.00    +0.000 OA
ATOM     16  H   UNL     1       4.489  -0.543  -1.453  1.00  0.00    +0.000 HD
ENDBRANCH   5  15
BRANCH   6  17
ATOM     17  O   UNL     1       2.223  -2.128  -1.092  1.00  0.00    +0.000 OA
ATOM     18  H   UNL     1       1.711  -2.933  -0.934  1.00  0.00    +0.000 HD
ENDBRANCH   6  17
TORSDOF 6
ENDMDL
MODEL 8
REMARK VINA RESULT:    -4.832      1.271      3.701
REMARK INTER + INTRA:          -5.680
REMARK INTER:                  -5.680
REMARK INTRA:                   0.000
REMARK UNBOUND:                 0.000
REMARK  Name = INS
REMARK  6 active torsions:
REMARK  status: ('A' for Active; 'I' for Inactive)
REMARK    1  A    between atoms: C_1  and  O_7
REMARK    2  A    between atoms: C_2  and  O_8
REMARK    3  A    between atoms: C_3  and  O_9
REMARK    4  A    between atoms: C_4  and  O_10
REMARK    5  A    between atoms: C_5  and  O_11
REMARK    6  A    between atoms: C_6  and  O_12
REMARK                            x       y       z     vdW  Elec       q    Type
REMARK                         _______ _______ _______ _____ _____    ______ ____
ROOT
ATOM      1  C   UNL     1       4.221  -1.094  -0.102  1.00  0.00    +0.000 C 
ATOM      2  C   UNL     1       5.021  -1.066   1.203  1.00  0.00    +0.000 C 
ATOM      3  C   UNL     1       4.066  -1.218   2.388  1.00  0.00    +0.000 C 
ATOM      4  C   UNL     1       3.321  -2.549   2.276  1.00  0.00    +0.000 C 
ATOM      5  C   UNL     1       2.521  -2.578   0.972  1.00  0.00    +0.000 C 
ATOM      6  C   UNL     1       3.476  -2.424  -0.215  1.00  0.00    +0.000 C 
ENDROOT
BRANCH   1   7
ATOM      7  O   UNL     1       5.112  -0.951  -1.210  1.00  0.00    +0.000 OA
ATOM      8  H   UNL     1       5.012  -1.634  -1.887  1.00  0.00    +0.000 HD
ENDBRANCH   1   7
BRANCH   2   9
ATOM      9  O   UNL     1       5.961  -2.140   1.208  1.00  0.00    +0.000 OA
ATOM     10  H   UNL     1       6.669  -2.041   1.859  1.00  0.00    +0.000 HD
ENDBRANCH   2   9
BRANCH   3  11
ATOM     11  O   UNL     1       4.812  -1.191   3.606  1.00  0.00    +0.000 OA
ATOM     12  H   UNL     1       4.478  -1.793   4.286  1.00  0.00    +0.000 HD
ENDBRANCH   3  11
BRANCH   4  13
ATOM     13  O   UNL     1       2.429  -2.691   3.384  1.00  0.00    +0.000 OA
ATOM     14  H   UNL     1       2.486  -1.973   4.029  1.00  0.00    +0.000 HD
ENDBRANCH   4  13
BRANCH   5  15
ATOM     15  O   UNL     1       1.825  -3.821   0.866  1.00  0.00    +0.000 OA
ATOM     16  H   UNL     1       2.338  -4.525   0.447  1.00  0.00    +0.000 HD
ENDBRANCH   5  15
BRANCH   6  17
ATOM     17  O   UNL     1       2.730  -2.451  -1.433  1.00  0.00    +0.000 OA
ATOM     18  H   UNL     1       1.771  -2.474  -1.307  1.00  0.00    +0.000 HD
ENDBRANCH   6  17
TORSDOF 6
ENDMDL
MODEL 9
REMARK VINA RESULT:    -4.775      1.033      3.202
REMARK INTER + INTRA:          -5.613
REMARK INTER:                  -5.613
REMARK INTRA:                   0.000
REMARK UNBOUND:                 0.000
REMARK  Name = INS
REMARK  6 active torsions:
REMARK  status: ('A' for Active; 'I' for Inactive)
REMARK    1  A    between atoms: C_1  and  O_7
REMARK    2  A    between atoms: C_2  and  O_8
REMARK    3  A    between atoms: C_3  and  O_9
REMARK    4  A    between atoms: C_4  and  O_10
REMARK    5  A    between atoms: C_5  and  O_11
REMARK    6  A    between atoms: C_6  and  O_12
REMARK                            x       y       z     vdW  Elec       q    Type
REMARK                         _______ _______ _______ _____ _____    ______ ____
ROOT
ATOM      1  C   UNL     1       3.108  -2.730  -0.147  1.00  0.00    +0.000 C 
ATOM      2  C   UNL     1       2.106  -2.297   0.927  1.00  0.00    +0.000 C 
ATOM      3  C   UNL     1       2.703  -2.552   2.312  1.00  0.00    +0.000 C 
ATOM      4  C   UNL     1       3.996  -1.748   2.466  1.00  0.00    +0.000 C 
ATOM      5  C   UNL     1       4.997  -2.181   1.393  1.00  0.00    +0.000 C 
ATOM      6  C   UNL     1       4.400  -1.927   0.007  1.00  0.00    +0.000 C 
ENDROOT
BRANCH   1   7
ATOM      7  O   UNL     1       2.550  -2.493  -1.441  1.00  0.00    +0.000 OA
ATOM      8  H   UNL     1       1.768  -3.027  -1.637  1.00  0.00    +0.000 HD
ENDBRANCH   1   7
BRANCH   2   9
ATOM      9  O   UNL     1       1.823  -0.905   0.779  1.00  0.00    +0.000 OA
ATOM     10  H   UNL     1       2.588  -0.372   0.523  1.00  0.00    +0.000 HD
ENDBRANCH   2   9
BRANCH   3  11
ATOM     11  O   UNL     1       1.768  -2.148   3.314  1.00  0.00    +0.000 OA
ATOM     12  H   UNL     1       1.846  -2.638   4.144  1.00  0.00    +0.000 HD
ENDBRANCH   3  11
BRANCH   4  13
ATOM     13  O   UNL     1       4.553  -1.985   3.761  1.00  0.00    +0.000 OA
ATOM     14  H   UNL     1       5.497  -1.786   3.825  1.00  0.00    +0.000 HD
ENDBRANCH   4  13
BRANCH   5  15
ATOM     15  O   UNL     1       6.205  -1.431   1.537  1.00  0.00    +0.000 OA
ATOM     16  H   UNL     1       6.391  -1.154   2.444  1.00  0.00    +0.000 HD
ENDBRANCH   5  15
BRANCH   6  17
ATOM     17  O   UNL     1       5.334  -2.331  -0.995  1.00  0.00    +0.000 OA
ATOM     18  H   UNL     1       5.089  -3.145  -1.457  1.00  0.00    +0.000 HD
ENDBRANCH   6  17
TORSDOF 6
ENDMDL
