MODEL 1
REMARK VINA RESULT:    -6.000      0.000      0.000
REMARK INTER + INTRA:          -6.701
REMARK INTER:                  -6.701
REMARK INTRA:                   0.000
REMARK UNBOUND:                 0.000
REMARK  Name = RIP
REMARK  4 active torsions:
REMARK  status: ('A' for Active; 'I' for Inactive)
REMARK    1  A    between atoms: C_1  and  O_6
REMARK    2  A    between atoms: C_2  and  O_7
REMARK    3  A    between atoms: C_3  and  O_8
REMARK    4  A    between atoms: C_4  and  O_9
REMARK                            x       y       z     vdW  Elec       q    Type
REMARK                         _______ _______ _______ _____ _____    ______ ____
ROOT
ATOM      1  C   UNL     1       2.778  -1.268   1.690  1.00  0.00    +0.000 C 
ATOM      2  C   UNL     1       4.033  -2.005   2.158  1.00  0.00    +0.000 C 
ATOM      3  C   UNL     1       4.954  -2.240   0.956  1.00  0.00    +0.000 C 
ATOM      4  C   UNL     1       4.154  -2.945  -0.145  1.00  0.00    +0.000 C 
ATOM      5  C   UNL     1       2.888  -2.137  -0.438  1.00  0.00    +0.000 C 
ATOM      6  O   UNL     1       2.080  -2.062   0.733  1.00  0.00    +0.000 OA
ENDROOT
BRANCH   1   7
ATOM      7  O   UNL     1       1.929  -1.020   2.812  1.00  0.00    +0.000 OA
ATOM      8  H   UNL     1       1.042  -1.311   2.560  1.00  0.00    +0.000 HD
ENDBRANCH   1   7
BRANCH   2   9
ATOM      9  O   UNL     1       4.714  -1.216   3.136  1.00  0.00    +0.000 OA
ATOM     10  H   UNL     1       4.046  -0.663   3.563  1.00  0.00    +0.000 HD
ENDBRANCH   2   9
BRANCH   3  11
ATOM     11  O   UNL     1       5.437  -0.987   0.469  1.00  0.00    +0.000 OA
ATOM     12  H   UNL     1       6.397  -0.993   0.585  1.00  0.00    +0.000 HD
ENDBRANCH   3  11
BRANCH   4  13
ATOM     13  O   UNL     1       4.948  -3.038  -1.329  1.00  0.00    +0.000 OA
ATOM     14  H   UNL     1       4.942  -3.968  -1.597  1.00  0.00    +0.000 HD
ENDBRANCH   4  13
TORSDOF 4
ENDMDL
MODEL 2
REMARK VINA RESULT:    -5.999      1.021      3.272
REMARK INTER + INTRA:          -6.701
REMARK INTER:                  -6.701
REMARK INTRA:                   0.000
REMARK UNBOUND:                 0.000
REMARK  Name = RIP
REMARK  4 active torsions:
REMARK  status: ('A' for Active; 'I' for Inactive)
REMARK    1  A    between atoms: C_1  and  O_6
REMARK    2  A    between atoms: C_2  and  O_7
REMARK    3  A    between atoms: C_3  and  O_8
REMARK    4  A    between atoms: C_4  and  O_9
REMARK                            x       y       z     vdW  Elec       q    Type
REMARK                         _______ _______ _______ _____ _____    ______ ____
ROOT
ATOM      1  C   UNL     1       4.189  -2.913   0.095  1.00  0.00    +0.000 C 
ATOM      2  C   UNL     1       4.268  -1.408   0.354  1.00  0.00    +0.000 C 
ATOM      3  C   UNL     1       3.623  -1.098   1.709  1.00  0.00    +0.000 C 
ATOM      4  C   UNL     1       2.210  -1.691   1.727  1.00  0.00    +0.000 C 
ATOM      5  C   UNL     1       2.287  -3.176   1.364  1.00  0.00    +0.000 C 
ATOM      6  O   UNL     1       2.825  -3.325   0.053  1.00  0.00    +0.000 OA
ENDROOT
BRANCH   1   7
ATOM      7  O   UNL     1       4.816  -3.212  -1.154  1.00  0.00    +0.000 OA
ATOM      8  H   UNL     1       4.147  -3.083  -1.839  1.00  0.00    +0.000 HD
ENDBRANCH   1   7
BRANCH   2   9
ATOM      9  O   UNL     1       5.636  -0.996   0.369  1.00  0.00    +0.000 OA
ATOM     10  H   UNL     1       6.142  -1.723   0.755  1.00  0.00    +0.000 HD
ENDBRANCH   2   9
BRANCH   3  11
ATOM     11  O   UNL     1       4.401  -1.680   2.755  1.00  0.00    +0.000 OA
ATOM     12  H   UNL     1       4.257  -1.140   3.544  1.00  0.00    +0.000 HD
ENDBRANCH   3  11
BRANCH   4  13
ATOM     13  O   UNL     1       1.647  -1.547   3.032  1.00  0.00    +0.000 OA
ATOM     14  H   UNL     1       2.388  -1.467   3.649  1.00  0.00    +0.000 HD
ENDBRANCH   4  13
TORSDOF 4
ENDMDL
MODEL 3
REMARK VINA RESULT:    -5.968      1.078      2.470
REMARK INTER + INTRA:          -6.666
REMARK INTER:                  -6.666
REMARK INTRA:                   0.000
REMARK UNBOUND:                 0.000
REMARK  Name = RIP
REMARK  4 active torsions:
REMARK  status: ('A' for Active; 'I' for Inactive)
REMARK    1  A    between atoms: C_1  and  O_6
REMARK    2  A    between atoms: C_2  and  O_7
REMARK    3  A    between atoms: C_3  and  O_8
REMARK    4  A    between atoms: C_4  and  O_9
REMARK                            x       y       z     vdW  Elec       q    Type
REMARK                         _______ _______ _______ _____ _____    ______ ____
ROOT
ATOM      1  C   UNL     1       3.862  -1.313   1.766  1.00  0.00    +0.000 C 
ATOM      2  C   UNL     1       2.838  -1.368   0.632  1.00  0.00    +0.000 C 
ATOM      3  C   UNL     1       3.167  -2.550  -0.285  1.00  0.00    +0.000 C 
ATOM      4  C   UNL     1       4.629  -2.434  -0.730  1.00  0.00    +0.000 C 
ATOM      5  C   UNL     1       5.519  -2.298   0.507  1.00  0.00    +0.000 C 
ATOM      6  O   UNL     1       5.169  -1.120   1.227  1.00  0.00    +0.000 OA
ENDROOT
BRANCH   1   7
ATOM      7  O   UNL     1       3.543  -0.230   2.641  1.00  0.00    +0.000 OA
ATOM      8  H   UNL     1       3.233  -0.622   3.468  1.00  0.00    +0.000 HD
ENDBRANCH   1   7
BRANCH   2   9
ATOM      9  O   UNL     1       1.528  -1.535   1.179  1.00  0.00    +0.000 OA
ATOM     10  H   UNL     1       1.463  -0.937   1.935  1.00  0.00    +0.000 HD
ENDBRANCH   2   9
BRANCH   3  11
ATOM     11  O   UNL     1       2.978  -3.775   0.425  1.00  0.00    +0.000 OA
ATOM     12  H   UNL     1       3.650  -4.391   0.103  1.00  0.00    +0.000 HD
ENDBRANCH   3  11
BRANCH   4  13
ATOM     13  O   UNL     1       5.001  -3.604  -1.461  1.00  0.00    +0.000 OA
ATOM     14  H   UNL     1       4.444  -4.325  -1.136  1.00  0.00    +0.000 HD
ENDBRANCH   4  13
TORSDOF 4
ENDMDL
MODEL 4
REMARK VINA RESULT:    -5.961      1.437      2.568
REMARK INTER + INTRA:          -6.658
REMARK INTER:                  -6.658
REMARK INTRA:                   0.000
REMARK UNBOUND:                 0.000
REMARK  Name = RIP
REMARK  4 active torsions:
REMARK  status: ('A' for Active; 'I' for Inactive)
REMARK    1  A    between atoms: C_1  and  O_6
REMARK    2  A    between atoms: C_2  and  O_7
REMARK    3  A    between atoms: C_3  and  O_8
REMARK    4  A    between atoms: C_4  and  O_9
REMARK                            x       y       z     vdW  Elec       q    Type
REMARK                         _______ _______ _______ _____ _____    ______ ____
ROOT
ATOM      1  C   UNL     1       4.385  -1.731   2.271  1.00  0.00    +0.000 C 
ATOM      2  C   UNL     1       2.860  -1.806   2.364  1.00  0.00    +0.000 C 
ATOM      3  C   UNL     1       2.304  -2.345   1.042  1.00  0.00    +0.000 C 
ATOM      4  C   UNL     1       2.848  -1.487  -0.106  1.00  0.00    +0.000 C 
ATOM      5  C   UNL     1       4.375  -1.436  -0.011  1.00  0.00    +0.000 C 
ATOM      6  O   UNL     1       4.763  -0.841   1.223  1.00  0.00    +0.000 OA
ENDROOT
BRANCH   1   7
ATOM      7  O   UNL     1       4.912  -1.257   3.512  1.00  0.00    +0.000 OA
ATOM      8  H   UNL     1       4.155  -1.009   4.060  1.00  0.00    +0.000 HD
ENDBRANCH   1   7
BRANCH   2   9
ATOM      9  O   UNL     1       2.488  -2.679   3.432  1.00  0.00    +0.000 OA
ATOM     10  H   UNL     1       2.537  -2.160   4.246  1.00  0.00    +0.000 HD
ENDBRANCH   2   9
BRANCH   3  11
ATOM     11  O   UNL     1       2.716  -3.700   0.865  1.00  0.00    +0.000 OA
ATOM     12  H   UNL     1       1.994  -4.257   1.186  1.00  0.00    +0.000 HD
ENDBRANCH   3  11
BRANCH   4  13
ATOM     13  O   UNL     1       2.465  -2.062  -1.356  1.00  0.00    +0.000 OA
ATOM     14  H   UNL     1       2.112  -2.942  -1.162  1.00  0.00    +0.000 HD
ENDBRANCH   4  13
TORSDOF 4
ENDMDL
MODEL 5
REMARK VINA RESULT:    -5.588      1.279      2.118
REMARK INTER + INTRA:          -6.241
REMARK INTER:                  -6.241
REMARK INTRA:                   0.000
REMARK UNBOUND:                 0.000
REMARK  Name = RIP
REMARK  4 active torsions:
REMARK  status: ('A' for Active; 'I' for Inactive)
REMARK    1  A    between atoms: C_1  and  O_6
REMARK    2  A    between atoms: C_2  and  O_7
REMARK    3  A    between atoms: C_3  and  O_8
REMARK    4  A    between atoms: C_4  and  O_9
REMARK                            x       y       z     vdW  Elec       q    Type
REMARK                         _______ _______ _______ _____ _____    ______ ____
ROOT
ATOM      1  C   UNL     1       2.256  -2.175   0.515  1.00  0.00    +0.000 C 
ATOM      2  C   UNL     1       2.963  -2.666   1.779  1.00  0.00    +0.000 C 
ATOM      3  C   UNL     1       4.298  -1.928   1.925  1.00  0.00    +0.000 C 
ATOM      4  C   UNL     1       5.094  -2.091   0.625  1.00  0.00    +0.000 C 
ATOM      5  C   UNL     1       4.225  -1.644  -0.552  1.00  0.00    +0.000 C 
ATOM      6  O   UNL     1       3.059  -2.459  -0.629  1.00  0.00    +0.000 OA
ENDROOT
BRANCH   1   7
ATOM      7  O   UNL     1       0.997  -2.839   0.389  1.00  0.00    +0.000 OA
ATOM      8  H   UNL     1       0.325  -2.148   0.306  1.00  0.00    +0.000 HD
ENDBRANCH   1   7
BRANCH   2   9
ATOM      9  O   UNL     1       2.142  -2.403   2.919  1.00  0.00    +0.000 OA
ATOM     10  H   UNL     1       1.881  -1.474   2.866  1.00  0.00    +0.000 HD
ENDBRANCH   2   9
BRANCH   3  11
ATOM     11  O   UNL     1       4.056  -0.542   2.168  1.00  0.00    +0.000 OA
ATOM     12  H   UNL     1       4.898  -0.084   2.039  1.00  0.00    +0.000 HD
ENDBRANCH   3  11
BRANCH   4  13
ATOM     13  O   UNL     1       6.273  -1.286   0.683  1.00  0.00    +0.000 OA
ATOM     14  H   UNL     1       6.558  -1.142  -0.231  1.00  0.00    +0.000 HD
ENDBRANCH   4  13
TORSDOF 4
ENDMDL
MODEL 6
REMARK VINA RESULT:    -5.485      1.360      3.763
REMARK INTER + INTRA:          -6.126
REMARK INTER:                  -6.126
REMARK INTRA:                   0.000
REMARK UNBOUND:                 0.000
REMARK  Name = RIP
REMARK  4 active torsions:
REMARK  status: ('A' for Active; 'I' for Inactive)
REMARK    1  A    between atoms: C_1  and  O_6
REMARK    2  A    between atoms: C_2  and  O_7
REMARK    3  A    between atoms: C_3  and  O_8
REMARK    4  A    between atoms: C_4  and  O_9
REMARK                            x       y       z     vdW  Elec       q    Type
REMARK                         _______ _______ _______ _____ _____    ______ ____
ROOT
ATOM      1  C   UNL     1       4.184  -1.360   0.223  1.00  0.00    +0.000 C 
ATOM      2  C   UNL     1       3.130  -2.439  -0.024  1.00  0.00    +0.000 C 
ATOM      3  C   UNL     1       2.223  -2.546   1.207  1.00  0.00    +0.000 C 
ATOM      4  C   UNL     1       3.100  -2.760   2.445  1.00  0.00    +0.000 C 
ATOM      5  C   UNL     1       4.157  -1.656   2.506  1.00  0.00    +0.000 C 
ATOM      6  O   UNL     1       4.986  -1.716   1.348  1.00  0.00    +0.000 OA
ENDROOT
BRANCH   1   7
ATOM      7  O   UNL     1       5.015  -1.235  -0.933  1.00  0.00    +0.000 OA
ATOM      8  H   UNL     1       4.922  -0.325  -1.246  1.00  0.00    +0.000 HD
ENDBRANCH   1   7
BRANCH   2   9
ATOM      9  O   UNL     1       2.347  -2.090  -1.168  1.00  0.00    +0.000 OA
ATOM     10  H   UNL     1       1.491  -2.526  -1.064  1.00  0.00    +0.000 HD
ENDBRANCH   2   9
BRANCH   3  11
ATOM     11  O   UNL     1       1.471  -1.341   1.354  1.00  0.00    +0.000 OA
ATOM     12  H   UNL     1       0.613  -1.493   0.936  1.00  0.00    +0.000 HD
ENDBRANCH   3  11
BRANCH   4  13
ATOM     13  O   UNL     1       2.288  -2.710   3.620  1.00  0.00    +0.000 OA
ATOM     14  H   UNL     1       1.370  -2.799   3.329  1.00  0.00    +0.000 HD
ENDBRANCH   4  13
TORSDOF 4
ENDMDL
MODEL 7
REMARK VINA RESULT:    -5.368      1.119      3.449
REMARK INTER + INTRA:          -5.996
REMARK INTER:                  -5.996
REMARK INTRA:                   0.000
REMARK UNBOUND:                 0.000
REMARK  Name = RIP
REMARK  4 active torsions:
REMARK  status: ('A' for Active; 'I' for Inactive)
REMARK    1  A    between atoms: C_1  and  O_6
REMARK    2  A    between atoms: C_2  and  O_7
REMARK    3  A    between atoms: C_3  and  O_8
REMARK    4  A    between atoms: C_4  and  O_9
REMARK                            x       y       z     vdW  Elec       q    Type
REMARK                         _______ _______ _______ _____ _____    ______ ____
ROOT
ATOM      1  C   UNL     1       3.331  -1.933  -0.221  1.00  0.00    +0.000 C 
ATOM      2  C   UNL     1       2.731  -2.809   0.879  1.00  0.00    +0.000 C 
ATOM      3  C   UNL     1       3.047  -2.188   2.244  1.00  0.00    +0.000 C 
ATOM      4  C   UNL     1       4.559  -1.960   2.341  1.00  0.00    +0.000 C 
ATOM      5  C   UNL     1       5.021  -1.148   1.129  1.00  0.00    +0.000 C 
ATOM      6  O   UNL     1       4.747  -1.868  -0.069  1.00  0.00    +0.000 OA
ENDROOT
BRANCH   1   7
ATOM      7  O   UNL     1       3.013  -2.491  -1.497  1.00  0.00    +0.000 OA
ATOM      8  H   UNL     1       2.058  -2.643  -1.505  1.00  0.00    +0.000 HD
ENDBRANCH   1   7
BRANCH   2   9
ATOM      9  O   UNL     1       1.314  -2.891   0.706  1.00  0.00    +0.000 OA
ATOM     10  H   UNL     1       0.984  -3.488   1.391  1.00  0.00    +0.000 HD
ENDBRANCH   2   9
BRANCH   3  11
ATOM     11  O   UNL     1       2.365  -0.940   2.372  1.00  0.00    +0.000 OA
ATOM     12  H   UNL     1       2.132  -0.655   1.478  1.00  0.00    +0.000 HD
ENDBRANCH   3  11
BRANCH   4  13
ATOM     13  O   UNL     1       4.859  -1.244   3.540  1.00  0.00    +0.000 OA
ATOM     14  H   UNL     1       4.103  -1.361   4.132  1.00  0.00    +0.000 HD
ENDBRANCH   4  13
TORSDOF 4
ENDMDL
MODEL 8
REMARK VINA RESULT:    -5.274      1.356      2.594
REMARK INTER + INTRA:          -5.890
REMARK INTER:                  -5.890
REMARK INTRA:                   0.000
REMARK UNBOUND:                 0.000
REMARK  Name = RIP
REMARK  4 active torsions:
REMARK  status: ('A' for Active; 'I' for Inactive)
REMARK    1  A    between atoms: C_1  and  O_6
REMARK    2  A    between atoms: C_2  and  O_7
REMARK    3  A    between atoms: C_3  and  O_8
REMARK    4  A    between atoms: C_4  and  O_9
REMARK                            x       y       z     vdW  Elec       q    Type
REMARK                         _______ _______ _______ _____ _____    ______ ____
ROOT
ATOM      1  C   UNL     1       4.244  -1.429   2.623  1.00  0.00    +0.000 C 
ATOM      2  C   UNL     1       4.735  -2.126   1.354  1.00  0.00    +0.000 C 
ATOM      3  C   UNL     1       3.575  -2.233   0.359  1.00  0.00    +0.000 C 
ATOM      4  C   UNL     1       2.390  -2.908   1.059  1.00  0.00    +0.000 C 
ATOM      5  C   UNL     1       2.076  -2.151   2.351  1.00  0.00    +0.000 C 
ATOM      6  O   UNL     1       3.201  -2.195   3.223  1.00  0.00    +0.000 OA
ENDROOT
BRANCH   1   7
ATOM      7  O   UNL     1       5.329  -1.299   3.543  1.00  0.00    +0.000 OA
ATOM      8  H   UNL     1       5.335  -2.102   4.083  1.00  0.00    +0.000 HD
ENDBRANCH   1   7
BRANCH   2   9
ATOM      9  O   UNL     1       5.797  -1.367   0.772  1.00  0.00    +0.000 OA
ATOM     10  H   UNL     1       5.548  -0.436   0.845  1.00  0.00    +0.000 HD
ENDBRANCH   2   9
BRANCH   3  11
ATOM     11  O   UNL     1       3.195  -0.928  -0.077  1.00  0.00    +0.000 OA
ATOM     12  H   UNL     1       3.188  -0.362   0.707  1.00  0.00    +0.000 HD
ENDBRANCH   3  11
BRANCH   4  13
ATOM     13  O   UNL     1       1.249  -2.881   0.199  1.00  0.00    +0.000 OA
ATOM     14  H   UNL     1       0.804  -2.036   0.352  1.00  0.00    +0.000 HD
ENDBRANCH   4  13
TORSDOF 4
ENDMDL
MODEL 9
REMARK VINA RESULT:    -5.088      1.212      2.705
REMARK INTER + INTRA:          -5.683
REMARK INTER:                  -5.683
REMARK INTRA:                   0.000
REMARK UNBOUND:                 0.000
REMARK  Name = RIP
REMARK  4 active torsions:
REMARK  status: ('A' for Active; 'I' for Inactive)
REMARK    1  A    between atoms: C_1  and  O_6
REMARK    2  A    between atoms: C_2  and  O_7
REMARK    3  A    between atoms: C_3  and  O_8
REMARK    4  A    between atoms: C_4  and  O_9
REMARK                            x       y       z     vdW  Elec       q    Type
REMARK                         _______ _______ _______ _____ _____    ______ ____
ROOT
ATOM      1  C   UNL     1       2.409  -1.802   1.211  1.00  0.00    +0.000 C 
ATOM      2  C   UNL     1       2.949  -1.380  -0.156  1.00  0.00    +0.000 C 
ATOM      3  C   UNL     1       4.413  -1.818  -0.274  1.00  0.00    +0.000 C 
ATOM      4  C   UNL     1       5.187  -1.273   0.931  1.00  0.00    +0.000 C 
ATOM      5  C   UNL     1       4.477  -1.703   2.217  1.00  0.00    +0.000 C 
ATOM      6  O   UNL     1       3.158  -1.165   2.244  1.00  0.00    +0.000 OA
ENDROOT
BRANCH   1   7
ATOM      7  O   UNL     1       1.036  -1.423   1.316  1.00  0.00    +0.000 OA
ATOM      8  H   UNL     1       0.561  -2.188   1.669  1.00  0.00    +0.000 HD
ENDBRANCH   1   7
BRANCH   2   9
ATOM      9  O   UNL     1       2.178  -2.001  -1.187  1.00  0.00    +0.000 OA
ATOM     10  H   UNL     1       2.795  -2.511  -1.728  1.00  0.00    +0.000 HD
ENDBRANCH   2   9
BRANCH   3  11
ATOM     11  O   UNL     1       4.487  -3.244  -0.286  1.00  0.00    +0.000 OA
ATOM     12  H   UNL     1       4.920  -3.495  -1.114  1.00  0.00    +0.000 HD
ENDBRANCH   3  11
BRANCH   4  13
ATOM     13  O   UNL     1       6.517  -1.795   0.921  1.00  0.00    +0.000 OA
ATOM     14  H   UNL     1       6.452  -2.718   0.640  1.00  0.00    +0.000 HD
ENDBRANCH   4  13
TORSDOF 4
ENDMDL
