MODEL 1
REMARK VINA RESULT:    -6.097      0.000      0.000
REMARK INTER + INTRA:          -6.097
REMARK INTER:                  -6.097
REMARK INTRA:                   0.000
REMARK UNBOUND:                 0.000
REMARK  Name = HPA
REMARK  0 active torsions:
REMARK  status: ('A' for Active; 'I' for Inactive)
REMARK                            x       y       z     vdW  Elec       q    Type
REMARK                         _______ _______ _______ _____ _____    ______ ____
ROOT
ATOM      1  N   UNL     1       2.427  -1.371   2.649  1.00  0.00    +0.000 N 
ATOM      2  C   UNL     1       1.488  -1.811   1.775  1.00  0.00    +0.000 A 
ATOM      3  N   UNL     1       1.800  -2.326   0.620  1.00  0.00    +0.000 NA
ATOM      4  C   UNL     1       3.087  -2.446   0.237  1.00  0.00    +0.000 A 
ATOM      5  C   UNL     1       4.097  -2.005   1.094  1.00  0.00    +0.000 A 
ATOM      6  C   UNL     1       3.740  -1.456   2.340  1.00  0.00    +0.000 A 
ATOM      7  O   UNL     1       4.593  -1.065   3.119  1.00  0.00    +0.000 OA
ATOM      8  N   UNL     1       5.288  -2.256   0.448  1.00  0.00    +0.000 N 
ATOM      9  C   UNL     1       4.985  -2.813  -0.743  1.00  0.00    +0.000 A 
ATOM     10  N   UNL     1       3.689  -2.924  -0.865  1.00  0.00    +0.000 NA
ATOM     11  H   UNL     1       2.156  -0.993   3.500  1.00  0.00    +0.000 HD
ATOM     12  H   UNL     1       6.178  -2.064   0.784  1.00  0.00    +0.000 HD
ENDROOT
TORSDOF 0
ENDMDL
MODEL 2
REMARK VINA RESULT:    -5.723      0.836      2.811
REMARK INTER + INTRA:          -5.723
REMARK INTER:                  -5.723
REMARK INTRA:                   0.000
REMARK UNBOUND:                 0.000
REMARK  Name = HPA
REMARK  0 active torsions:
REMARK  status: ('A' for Active; 'I' for Inactive)
REMARK                            x       y       z     vdW  Elec       q    Type
REMARK                         _______ _______ _______ _____ _____    ______ ____
ROOT
ATOM      1  N   UNL     1       5.711  -1.724   1.448  1.00  0.00    +0.000 N 
ATOM      2  C   UNL     1       5.485  -2.051   0.150  1.00  0.00    +0.000 A 
ATOM      3  N   UNL     1       4.285  -2.215  -0.326  1.00  0.00    +0.000 NA
ATOM      4  C   UNL     1       3.198  -2.065   0.458  1.00  0.00    +0.000 A 
ATOM      5  C   UNL     1       3.370  -1.734   1.804  1.00  0.00    +0.000 A 
ATOM      6  C   UNL     1       4.675  -1.556   2.299  1.00  0.00    +0.000 A 
ATOM      7  O   UNL     1       4.867  -1.261   3.467  1.00  0.00    +0.000 OA
ATOM      8  N   UNL     1       2.105  -1.646   2.344  1.00  0.00    +0.000 N 
ATOM      9  C   UNL     1       1.230  -1.923   1.354  1.00  0.00    +0.000 A 
ATOM     10  N   UNL     1       1.876  -2.169   0.246  1.00  0.00    +0.000 NA
ATOM     11  H   UNL     1       6.620  -1.610   1.765  1.00  0.00    +0.000 HD
ATOM     12  H   UNL     1       1.885  -1.429   3.264  1.00  0.00    +0.000 HD
ENDROOT
TORSDOF 0
ENDMDL
MODEL 3
REMARK VINA RESULT:    -5.440      2.000      3.676
REMARK INTER + INTRA:          -5.440
REMARK INTER:                  -5.440
REMARK INTRA:                   0.000
REMARK UNBOUND:                 0.000
REMARK  Name = HPA
REMARK  0 active torsions:
REMARK  status: ('A' for Active; 'I' for Inactive)
REMARK                            x       y       z     vdW  Elec       q    Type
REMARK                         _______ _______ _______ _____ _____    ______ ____
ROOT
ATOM      1  N   UNL     1       4.433  -1.269  -0.715  1.00  0.00    +0.000 N 
ATOM      2  C   UNL     1       5.461  -1.349   0.168  1.00  0.00    +0.000 A 
ATOM      3  N   UNL     1       5.280  -1.661   1.419  1.00  0.00    +0.000 NA
ATOM      4  C   UNL     1       4.047  -1.922   1.900  1.00  0.00    +0.000 A 
ATOM      5  C   UNL     1       2.951  -1.850   1.038  1.00  0.00    +0.000 A 
ATOM      6  C   UNL     1       3.167  -1.516  -0.311  1.00  0.00    +0.000 A 
ATOM      7  O   UNL     1       2.236  -1.448  -1.097  1.00  0.00    +0.000 OA
ATOM      8  N   UNL     1       1.843  -2.165   1.796  1.00  0.00    +0.000 N 
ATOM      9  C   UNL     1       2.276  -2.403   3.052  1.00  0.00    +0.000 A 
ATOM     10  N   UNL     1       3.573  -2.260   3.110  1.00  0.00    +0.000 NA
ATOM     11  H   UNL     1       4.609  -1.034  -1.639  1.00  0.00    +0.000 HD
ATOM     12  H   UNL     1       0.925  -2.204   1.486  1.00  0.00    +0.000 HD
ENDROOT
TORSDOF 0
ENDMDL
MODEL 4
REMARK VINA RESULT:    -5.433      1.877      2.541
REMARK INTER + INTRA:          -5.433
REMARK INTER:                  -5.433
REMARK INTRA:                   0.000
REMARK UNBOUND:                 0.000
REMARK  Name = HPA
REMARK  0 active torsions:
REMARK  status: ('A' for Active; 'I' for Inactive)
REMARK                            x       y       z     vdW  Elec       q    Type
REMARK                         _______ _______ _______ _____ _____    ______ ____
ROOT
ATOM      1  N   UNL     1       1.537  -1.999   1.042  1.00  0.00    +0.000 N 
ATOM      2  C   UNL     1       1.862  -1.934   2.358  1.00  0.00    +0.000 A 
ATOM      3  N   UNL     1       3.095  -1.844   2.765  1.00  0.00    +0.000 NA
ATOM      4  C   UNL     1       4.118  -1.810   1.887  1.00  0.00    +0.000 A 
ATOM      5  C   UNL     1       3.844  -1.879   0.520  1.00  0.00    +0.000 A 
ATOM      6  C   UNL     1       2.504  -1.971   0.099  1.00  0.00    +0.000 A 
ATOM      7  O   UNL     1       2.223  -2.028  -1.087  1.00  0.00    +0.000 OA
ATOM      8  N   UNL     1       5.062  -1.821  -0.121  1.00  0.00    +0.000 N 
ATOM      9  C   UNL     1       6.010  -1.729   0.835  1.00  0.00    +0.000 A 
ATOM     10  N   UNL     1       5.452  -1.723   2.015  1.00  0.00    +0.000 NA
ATOM     11  H   UNL     1       0.606  -2.066   0.777  1.00  0.00    +0.000 HD
ATOM     12  H   UNL     1       5.211  -1.844  -1.080  1.00  0.00    +0.000 HD
ENDROOT
TORSDOF 0
ENDMDL
MODEL 5
REMARK VINA RESULT:    -5.360      1.825      3.010
REMARK INTER + INTRA:          -5.360
REMARK INTER:                  -5.360
REMARK INTRA:                   0.000
REMARK UNBOUND:                 0.000
REMARK  Name = HPA
REMARK  0 active torsions:
REMARK  status: ('A' for Active; 'I' for Inactive)
REMARK                            x       y       z     vdW  Elec       q    Type
REMARK                         _______ _______ _______ _____ _____    ______ ____
ROOT
ATOM      1  N   UNL     1       3.367  -2.198  -1.040  1.00  0.00    +0.000 N 
ATOM      2  C   UNL     1       2.270  -1.632  -0.476  1.00  0.00    +0.000 A 
ATOM      3  N   UNL     1       2.264  -1.204   0.753  1.00  0.00    +0.000 NA
ATOM      4  C   UNL     1       3.361  -1.303   1.531  1.00  0.00    +0.000 A 
ATOM      5  C   UNL     1       4.518  -1.882   1.005  1.00  0.00    +0.000 A 
ATOM      6  C   UNL     1       4.507  -2.335  -0.327  1.00  0.00    +0.000 A 
ATOM      7  O   UNL     1       5.499  -2.841  -0.824  1.00  0.00    +0.000 OA
ATOM      8  N   UNL     1       5.460  -1.844   2.011  1.00  0.00    +0.000 N 
ATOM      9  C   UNL     1       4.872  -1.274   3.084  1.00  0.00    +0.000 A 
ATOM     10  N   UNL     1       3.638  -0.957   2.799  1.00  0.00    +0.000 NA
ATOM     11  H   UNL     1       3.333  -2.506  -1.959  1.00  0.00    +0.000 HD
ATOM     12  H   UNL     1       6.372  -2.170   1.959  1.00  0.00    +0.000 HD
ENDROOT
TORSDOF 0
ENDMDL
MODEL 6
REMARK VINA RESULT:    -5.046      1.558      2.567
REMARK INTER + INTRA:          -5.046
REMARK INTER:                  -5.046
REMARK INTRA:                   0.000
REMARK UNBOUND:                 0.000
REMARK  Name = HPA
REMARK  0 active torsions:
REMARK  status: ('A' for Active; 'I' for Inactive)
REMARK                            x       y       z     vdW  Elec       q    Type
REMARK                         _______ _______ _______ _____ _____    ______ ____
ROOT
ATOM      1  N   UNL     1       1.776  -1.648   0.618  1.00  0.00    +0.000 N 
ATOM      2  C   UNL     1       2.628  -1.760  -0.432  1.00  0.00    +0.000 A 
ATOM      3  N   UNL     1       3.920  -1.799  -0.278  1.00  0.00    +0.000 NA
ATOM      4  C   UNL     1       4.477  -1.729   0.948  1.00  0.00    +0.000 A 
ATOM      5  C   UNL     1       3.650  -1.607   2.066  1.00  0.00    +0.000 A 
ATOM      6  C   UNL     1       2.256  -1.571   1.880  1.00  0.00    +0.000 A 
ATOM      7  O   UNL     1       1.499  -1.471   2.831  1.00  0.00    +0.000 OA
ATOM      8  N   UNL     1       4.485  -1.562   3.162  1.00  0.00    +0.000 N 
ATOM      9  C   UNL     1       5.751  -1.646   2.700  1.00  0.00    +0.000 A 
ATOM     10  N   UNL     1       5.743  -1.744   1.398  1.00  0.00    +0.000 NA
ATOM     11  H   UNL     1       0.820  -1.622   0.463  1.00  0.00    +0.000 HD
ATOM     12  H   UNL     1       4.215  -1.481   4.090  1.00  0.00    +0.000 HD
ENDROOT
TORSDOF 0
ENDMDL
MODEL 7
REMARK VINA RESULT:    -5.028      1.705      2.522
REMARK INTER + INTRA:          -5.028
REMARK INTER:                  -5.028
REMARK INTRA:                   0.000
REMARK UNBOUND:                 0.000
REMARK  Name = HPA
REMARK  0 active torsions:
REMARK  status: ('A' for Active; 'I' for Inactive)
REMARK                            x       y       z     vdW  Elec       q    Type
REMARK                         _______ _______ _______ _____ _____    ______ ____
ROOT
ATOM      1  N   UNL     1       5.435  -1.670   2.435  1.00  0.00    +0.000 N 
ATOM      2  C   UNL     1       4.281  -1.667   3.149  1.00  0.00    +0.000 A 
ATOM      3  N   UNL     1       3.112  -1.585   2.581  1.00  0.00    +0.000 NA
ATOM      4  C   UNL     1       2.994  -1.498   1.240  1.00  0.00    +0.000 A 
ATOM      5  C   UNL     1       4.148  -1.491   0.454  1.00  0.00    +0.000 A 
ATOM      6  C   UNL     1       5.402  -1.586   1.086  1.00  0.00    +0.000 A 
ATOM      7  O   UNL     1       6.433  -1.588   0.434  1.00  0.00    +0.000 OA
ATOM      8  N   UNL     1       3.724  -1.399  -0.854  1.00  0.00    +0.000 N 
ATOM      9  C   UNL     1       2.375  -1.347  -0.831  1.00  0.00    +0.000 A 
ATOM     10  N   UNL     1       1.949  -1.405   0.402  1.00  0.00    +0.000 NA
ATOM     11  H   UNL     1       6.287  -1.732   2.894  1.00  0.00    +0.000 HD
ATOM     12  H   UNL     1       4.287  -1.373  -1.643  1.00  0.00    +0.000 HD
ENDROOT
TORSDOF 0
ENDMDL
MODEL 8
REMARK VINA RESULT:    -4.937      1.694      2.635
REMARK INTER + INTRA:          -4.937
REMARK INTER:                  -4.937
REMARK INTRA:                   0.000
REMARK UNBOUND:                 0.000
REMARK  Name = HPA
REMARK  0 active torsions:
REMARK  status: ('A' for Active; 'I' for Inactive)
REMARK                            x       y       z     vdW  Elec       q    Type
REMARK                         _______ _______ _______ _____ _____    ______ ____
ROOT
ATOM      1  N   UNL     1       4.095  -2.017   3.304  1.00  0.00    +0.000 N 
ATOM      2  C   UNL     1       5.208  -1.634   2.629  1.00  0.00    +0.000 A 
ATOM      3  N   UNL     1       5.183  -1.328   1.364  1.00  0.00    +0.000 NA
ATOM      4  C   UNL     1       4.035  -1.379   0.659  1.00  0.00    +0.000 A 
ATOM      5  C   UNL     1       2.858  -1.771   1.299  1.00  0.00    +0.000 A 
ATOM      6  C   UNL     1       2.904  -2.093   2.668  1.00  0.00    +0.000 A 
ATOM      7  O   UNL     1       1.897  -2.435   3.266  1.00  0.00    +0.000 OA
ATOM      8  N   UNL     1       1.865  -1.724   0.345  1.00  0.00    +0.000 N 
ATOM      9  C   UNL     1       2.441  -1.329  -0.809  1.00  0.00    +0.000 A 
ATOM     10  N   UNL     1       3.718  -1.126  -0.622  1.00  0.00    +0.000 NA
ATOM     11  H   UNL     1       4.154  -2.237   4.247  1.00  0.00    +0.000 HD
ATOM     12  H   UNL     1       0.928  -1.939   0.477  1.00  0.00    +0.000 HD
ENDROOT
TORSDOF 0
ENDMDL
MODEL 9
REMARK VINA RESULT:    -4.867     12.219     13.536
REMARK INTER + INTRA:          -4.867
REMARK INTER:                  -4.867
REMARK INTRA:                   0.000
REMARK UNBOUND:                 0.000
REMARK  Name = HPA
REMARK  0 active torsions:
REMARK  status: ('A' for Active; 'I' for Inactive)
REMARK                            x       y       z     vdW  Elec       q    Type
REMARK                         _______ _______ _______ _____ _____    ______ ____
ROOT
ATOM      1  N   UNL     1      -8.712 -10.140  -0.993  1.00  0.00    +0.000 N 
ATOM      2  C   UNL     1      -9.532 -10.121   0.088  1.00  0.00    +0.000 A 
ATOM      3  N   UNL     1      -9.233  -9.471   1.175  1.00  0.00    +0.000 NA
ATOM      4  C   UNL     1      -8.081  -8.778   1.278  1.00  0.00    +0.000 A 
ATOM      5  C   UNL     1      -7.195  -8.766   0.198  1.00  0.00    +0.000 A 
ATOM      6  C   UNL     1      -7.538  -9.470  -0.971  1.00  0.00    +0.000 A 
ATOM      7  O   UNL     1      -6.794  -9.480  -1.937  1.00  0.00    +0.000 OA
ATOM      8  N   UNL     1      -6.126  -7.987   0.585  1.00  0.00    +0.000 N 
ATOM      9  C   UNL     1      -6.374  -7.569   1.844  1.00  0.00    +0.000 A 
ATOM     10  N   UNL     1      -7.525  -8.035   2.249  1.00  0.00    +0.000 NA
ATOM     11  H   UNL     1      -8.970 -10.636  -1.786  1.00  0.00    +0.000 HD
ATOM     12  H   UNL     1      -5.341  -7.781   0.054  1.00  0.00    +0.000 HD
ENDROOT
TORSDOF 0
ENDMDL
