MODEL 1
REMARK VINA RESULT:    -5.237      0.000      0.000
REMARK INTER + INTRA:          -8.306
REMARK INTER:                  -7.686
REMARK INTRA:                  -0.620
REMARK UNBOUND:                -0.620
REMARK  Name = X9X
REMARK  11 active torsions:
REMARK  status: ('A' for Active; 'I' for Inactive)
REMARK    1  A    between atoms: O_1  and  C_2
REMARK    2  A    between atoms: C_2  and  C_3
REMARK    3  A    between atoms: C_3  and  O_4
REMARK    4  A    between atoms: C_3  and  C_5
REMARK    5  A    between atoms: C_5  and  O_6
REMARK    6  A    between atoms: C_5  and  C_7
REMARK    7  A    between atoms: C_7  and  O_8
REMARK    8  A    between atoms: C_7  and  C_9
REMARK    9  A    between atoms: C_9  and  O_10
REMARK   10  A    between atoms: C_9  and  C_11
REMARK   11  A    between atoms: C_11  and  O_12
REMARK                            x       y       z     vdW  Elec       q    Type
REMARK                         _______ _______ _______ _____ _____    ______ ____
ROOT
ATOM      1  C   UNL     1       2.967  -1.335  -0.290  1.00  0.00    +0.000 C 
ENDROOT
BRANCH   1   2
ATOM      2  O   UNL     1       2.761  -2.021  -1.526  1.00  0.00    +0.000 OA
ATOM      3  H   UNL     1       2.871  -2.979  -1.467  1.00  0.00    +0.000 HD
ENDBRANCH   1   2
BRANCH   1   4
ATOM      4  C   UNL     1       4.333  -1.716   0.283  1.00  0.00    +0.000 C 
BRANCH   4   5
ATOM      5  O   UNL     1       5.214  -0.593   0.205  1.00  0.00    +0.000 OA
ATOM      6  H   UNL     1       5.012   0.109   0.838  1.00  0.00    +0.000 HD
ENDBRANCH   4   5
BRANCH   4   7
ATOM      7  C   UNL     1       4.917  -2.879  -0.521  1.00  0.00    +0.000 C 
BRANCH   7   8
ATOM      8  O   UNL     1       4.105  -4.041  -0.338  1.00  0.00    +0.000 OA
ATOM      9  H   UNL     1       4.273  -4.513   0.488  1.00  0.00    +0.000 HD
ENDBRANCH   7   8
ENDBRANCH   4   7
ENDBRANCH   1   4
BRANCH   1  10
ATOM     10  C   UNL     1       1.870  -1.727   0.701  1.00  0.00    +0.000 C 
BRANCH  10  11
ATOM     11  O   UNL     1       1.372  -3.026   0.372  1.00  0.00    +0.000 OA
ATOM     12  H   UNL     1       0.427  -3.045   0.169  1.00  0.00    +0.000 HD
ENDBRANCH  10  11
BRANCH  10  13
ATOM     13  C   UNL     1       2.444  -1.745   2.118  1.00  0.00    +0.000 C 
BRANCH  13  14
ATOM     14  O   UNL     1       1.757  -0.786   2.924  1.00  0.00    +0.000 OA
ATOM     15  H   UNL     1       1.772   0.112   2.566  1.00  0.00    +0.000 HD
ENDBRANCH  13  14
BRANCH  13  16
ATOM     16  C   UNL     1       2.267  -3.139   2.723  1.00  0.00    +0.000 C 
BRANCH  16  17
ATOM     17  O   UNL     1       2.202  -3.037   4.147  1.00  0.00    +0.000 OA
ATOM     18  H   UNL     1       2.607  -2.235   4.504  1.00  0.00    +0.000 HD
ENDBRANCH  16  17
ENDBRANCH  13  16
ENDBRANCH  10  13
ENDBRANCH   1  10
TORSDOF 11
ENDMDL
MODEL 2
REMARK VINA RESULT:    -5.200      1.129      4.264
REMARK INTER + INTRA:          -8.252
REMARK INTER:                  -8.022
REMARK INTRA:                  -0.230
REMARK UNBOUND:                -0.620
REMARK  Name = X9X
REMARK  11 active torsions:
REMARK  status: ('A' for Active; 'I' for Inactive)
REMARK    1  A    between atoms: O_1  and  C_2
REMARK    2  A    between atoms: C_2  and  C_3
REMARK    3  A    between atoms: C_3  and  O_4
REMARK    4  A    between atoms: C_3  and  C_5
REMARK    5  A    between atoms: C_5  and  O_6
REMARK    6  A    between atoms: C_5  and  C_7
REMARK    7  A    between atoms: C_7  and  O_8
REMARK    8  A    between atoms: C_7  and  C_9
REMARK    9  A    between atoms: C_9  and  O_10
REMARK   10  A    between atoms: C_9  and  C_11
REMARK   11  A    between atoms: C_11  and  O_12
REMARK                            x       y       z     vdW  Elec       q    Type
REMARK                         _______ _______ _______ _____ _____    ______ ____
ROOT
ATOM      1  C   UNL     1       3.700  -1.165   1.892  1.00  0.00    +0.000 C 
ENDROOT
BRANCH   1   2
ATOM      2  O   UNL     1       4.627  -2.012   2.575  1.00  0.00    +0.000 OA
ATOM      3  H   UNL     1       5.498  -2.058   2.158  1.00  0.00    +0.000 HD
ENDBRANCH   1   2
BRANCH   1   4
ATOM      4  C   UNL     1       2.286  -1.727   2.046  1.00  0.00    +0.000 C 
BRANCH   4   5
ATOM      5  O   UNL     1       1.519  -0.862   2.886  1.00  0.00    +0.000 OA
ATOM      6  H   UNL     1       0.565  -1.014   2.839  1.00  0.00    +0.000 HD
ENDBRANCH   4   5
BRANCH   4   7
ATOM      7  C   UNL     1       2.356  -3.119   2.675  1.00  0.00    +0.000 C 
BRANCH   7   8
ATOM      8  O   UNL     1       2.224  -3.008   4.094  1.00  0.00    +0.000 OA
ATOM      9  H   UNL     1       3.064  -3.042   4.571  1.00  0.00    +0.000 HD
ENDBRANCH   7   8
ENDBRANCH   4   7
ENDBRANCH   1   4
BRANCH   1  10
ATOM     10  C   UNL     1       4.066  -1.102   0.407  1.00  0.00    +0.000 C 
BRANCH  10  11
ATOM     11  O   UNL     1       5.421  -0.670   0.268  1.00  0.00    +0.000 OA
ATOM     12  H   UNL     1       6.072  -1.377   0.378  1.00  0.00    +0.000 HD
ENDBRANCH  10  11
BRANCH  10  13
ATOM     13  C   UNL     1       3.905  -2.489  -0.218  1.00  0.00    +0.000 C 
BRANCH  13  14
ATOM     14  O   UNL     1       2.991  -2.415  -1.314  1.00  0.00    +0.000 OA
ATOM     15  H   UNL     1       3.386  -2.083  -2.133  1.00  0.00    +0.000 HD
ENDBRANCH  13  14
BRANCH  13  16
ATOM     16  C   UNL     1       5.263  -2.983  -0.719  1.00  0.00    +0.000 C 
BRANCH  16  17
ATOM     17  O   UNL     1       5.073  -3.831  -1.854  1.00  0.00    +0.000 OA
ATOM     18  H   UNL     1       5.324  -4.752  -1.704  1.00  0.00    +0.000 HD
ENDBRANCH  16  17
ENDBRANCH  13  16
ENDBRANCH  10  13
ENDBRANCH   1  10
TORSDOF 11
ENDMDL
MODEL 3
REMARK VINA RESULT:    -4.809     10.924     12.544
REMARK INTER + INTRA:          -7.679
REMARK INTER:                  -6.674
REMARK INTRA:                  -1.005
REMARK UNBOUND:                -0.620
REMARK  Name = X9X
REMARK  11 active torsions:
REMARK  status: ('A' for Active; 'I' for Inactive)
REMARK    1  A    between atoms: O_1  and  C_2
REMARK    2  A    between atoms: C_2  and  C_3
REMARK    3  A    between atoms: C_3  and  O_4
REMARK    4  A    between atoms: C_3  and  C_5
REMARK    5  A    between atoms: C_5  and  O_6
REMARK    6  A    between atoms: C_5  and  C_7
REMARK    7  A    between atoms: C_7  and  O_8
REMARK    8  A    between atoms: C_7  and  C_9
REMARK    9  A    between atoms: C_9  and  O_10
REMARK   10  A    between atoms: C_9  and  C_11
REMARK   11  A    between atoms: C_11  and  O_12
REMARK                            x       y       z     vdW  Elec       q    Type
REMARK                         _______ _______ _______ _____ _____    ______ ____
ROOT
ATOM      1  C   UNL     1      -7.097  -8.107   0.981  1.00  0.00    +0.000 C 
ENDROOT
BRANCH   1   2
ATOM      2  O   UNL     1      -6.012  -8.046   0.052  1.00  0.00    +0.000 OA
ATOM      3  H   UNL     1      -5.145  -8.206   0.449  1.00  0.00    +0.000 HD
ENDBRANCH   1   2
BRANCH   1   4
ATOM      4  C   UNL     1      -6.545  -8.213   2.403  1.00  0.00    +0.000 C 
BRANCH   4   5
ATOM      5  O   UNL     1      -7.526  -7.745   3.331  1.00  0.00    +0.000 OA
ATOM      6  H   UNL     1      -7.330  -7.961   4.253  1.00  0.00    +0.000 HD
ENDBRANCH   4   5
BRANCH   4   7
ATOM      7  C   UNL     1      -5.281  -7.359   2.525  1.00  0.00    +0.000 C 
BRANCH   7   8
ATOM      8  O   UNL     1      -4.130  -8.178   2.304  1.00  0.00    +0.000 OA
ATOM      9  H   UNL     1      -4.193  -8.743   1.523  1.00  0.00    +0.000 HD
ENDBRANCH   7   8
ENDBRANCH   4   7
ENDBRANCH   1   4
BRANCH   1  10
ATOM     10  C   UNL     1      -7.962  -9.332   0.676  1.00  0.00    +0.000 C 
BRANCH  10  11
ATOM     11  O   UNL     1      -8.835  -9.585   1.778  1.00  0.00    +0.000 OA
ATOM     12  H   UNL     1      -8.962 -10.524   1.972  1.00  0.00    +0.000 HD
ENDBRANCH  10  11
BRANCH  10  13
ATOM     13  C   UNL     1      -8.790  -9.072  -0.583  1.00  0.00    +0.000 C 
BRANCH  13  14
ATOM     14  O   UNL     1      -8.614  -7.716  -0.997  1.00  0.00    +0.000 OA
ATOM     15  H   UNL     1      -8.932  -7.534  -1.892  1.00  0.00    +0.000 HD
ENDBRANCH  13  14
BRANCH  13  16
ATOM     16  C   UNL     1      -8.329 -10.010  -1.700  1.00  0.00    +0.000 C 
BRANCH  16  17
ATOM     17  O   UNL     1      -7.090  -9.541  -2.236  1.00  0.00    +0.000 OA
ATOM     18  H   UNL     1      -6.675 -10.151  -2.861  1.00  0.00    +0.000 HD
ENDBRANCH  16  17
ENDBRANCH  13  16
ENDBRANCH  10  13
ENDBRANCH   1  10
TORSDOF 11
ENDMDL
MODEL 4
REMARK VINA RESULT:    -4.761     11.667     13.333
REMARK INTER + INTRA:          -7.608
REMARK INTER:                  -6.808
REMARK INTRA:                  -0.800
REMARK UNBOUND:                -0.620
REMARK  Name = X9X
REMARK  11 active torsions:
REMARK  status: ('A' for Active; 'I' for Inactive)
REMARK    1  A    between atoms: O_1  and  C_2
REMARK    2  A    between atoms: C_2  and  C_3
REMARK    3  A    between atoms: C_3  and  O_4
REMARK    4  A    between atoms: C_3  and  C_5
REMARK    5  A    between atoms: C_5  and  O_6
REMARK    6  A    between atoms: C_5  and  C_7
REMARK    7  A    between atoms: C_7  and  O_8
REMARK    8  A    between atoms: C_7  and  C_9
REMARK    9  A    between atoms: C_9  and  O_10
REMARK   10  A    between atoms: C_9  and  C_11
REMARK   11  A    between atoms: C_11  and  O_12
REMARK                            x       y       z     vdW  Elec       q    Type
REMARK                         _______ _______ _______ _____ _____    ______ ____
ROOT
ATOM      1  C   UNL     1      -8.138  -9.306   0.803  1.00  0.00    +0.000 C 
ENDROOT
BRANCH   1   2
ATOM      2  O   UNL     1      -8.876  -9.774   1.933  1.00  0.00    +0.000 OA
ATOM      3  H   UNL     1      -9.230 -10.668   1.829  1.00  0.00    +0.000 HD
ENDBRANCH   1   2
BRANCH   1   4
ATOM      4  C   UNL     1      -7.326  -8.072   1.198  1.00  0.00    +0.000 C 
BRANCH   4   5
ATOM      5  O   UNL     1      -6.130  -8.018   0.418  1.00  0.00    +0.000 OA
ATOM      6  H   UNL     1      -5.804  -8.884   0.138  1.00  0.00    +0.000 HD
ENDBRANCH   4   5
BRANCH   4   7
ATOM      7  C   UNL     1      -6.963  -8.155   2.682  1.00  0.00    +0.000 C 
BRANCH   7   8
ATOM      8  O   UNL     1      -5.795  -7.369   2.932  1.00  0.00    +0.000 OA
ATOM      9  H   UNL     1      -5.151  -7.380   2.211  1.00  0.00    +0.000 HD
ENDBRANCH   7   8
ENDBRANCH   4   7
ENDBRANCH   1   4
BRANCH   1  10
ATOM     10  C   UNL     1      -9.108  -8.940  -0.324  1.00  0.00    +0.000 C 
BRANCH  10  11
ATOM     11  O   UNL     1      -8.747  -7.669  -0.868  1.00  0.00    +0.000 OA
ATOM     12  H   UNL     1      -9.047  -7.532  -1.777  1.00  0.00    +0.000 HD
ENDBRANCH  10  11
BRANCH  10  13
ATOM     13  C   UNL     1      -9.041 -10.003  -1.420  1.00  0.00    +0.000 C 
BRANCH  13  14
ATOM     14  O   UNL     1      -9.442  -9.430  -2.666  1.00  0.00    +0.000 OA
ATOM     15  H   UNL     1      -9.518  -8.466  -2.649  1.00  0.00    +0.000 HD
ENDBRANCH  13  14
BRANCH  13  16
ATOM     16  C   UNL     1      -7.607 -10.525  -1.538  1.00  0.00    +0.000 C 
BRANCH  16  17
ATOM     17  O   UNL     1      -6.803  -9.561  -2.222  1.00  0.00    +0.000 OA
ATOM     18  H   UNL     1      -7.247  -9.135  -2.967  1.00  0.00    +0.000 HD
ENDBRANCH  16  17
ENDBRANCH  13  16
ENDBRANCH  10  13
ENDBRANCH   1  10
TORSDOF 11
ENDMDL
MODEL 5
REMARK VINA RESULT:    -4.744      1.160      4.186
REMARK INTER + INTRA:          -7.582
REMARK INTER:                  -7.202
REMARK INTRA:                  -0.381
REMARK UNBOUND:                -0.620
REMARK  Name = X9X
REMARK  11 active torsions:
REMARK  status: ('A' for Active; 'I' for Inactive)
REMARK    1  A    between atoms: O_1  and  C_2
REMARK    2  A    between atoms: C_2  and  C_3
REMARK    3  A    between atoms: C_3  and  O_4
REMARK    4  A    between atoms: C_3  and  C_5
REMARK    5  A    between atoms: C_5  and  O_6
REMARK    6  A    between atoms: C_5  and  C_7
REMARK    7  A    between atoms: C_7  and  O_8
REMARK    8  A    between atoms: C_7  and  C_9
REMARK    9  A    between atoms: C_9  and  O_10
REMARK   10  A    between atoms: C_9  and  C_11
REMARK   11  A    between atoms: C_11  and  O_12
REMARK                            x       y       z     vdW  Elec       q    Type
REMARK                         _______ _______ _______ _____ _____    ______ ____
ROOT
ATOM      1  C   UNL     1       3.219  -1.753   1.317  1.00  0.00    +0.000 C 
ENDROOT
BRANCH   1   2
ATOM      2  O   UNL     1       4.284  -1.991   2.239  1.00  0.00    +0.000 OA
ATOM      3  H   UNL     1       4.486  -2.928   2.373  1.00  0.00    +0.000 HD
ENDBRANCH   1   2
BRANCH   1   4
ATOM      4  C   UNL     1       1.877  -1.972   2.019  1.00  0.00    +0.000 C 
BRANCH   4   5
ATOM      5  O   UNL     1       1.636  -0.900   2.932  1.00  0.00    +0.000 OA
ATOM      6  H   UNL     1       1.675  -1.160   3.862  1.00  0.00    +0.000 HD
ENDBRANCH   4   5
BRANCH   4   7
ATOM      7  C   UNL     1       1.913  -3.296   2.784  1.00  0.00    +0.000 C 
BRANCH   7   8
ATOM      8  O   UNL     1       2.246  -3.047   4.152  1.00  0.00    +0.000 OA
ATOM      9  H   UNL     1       2.773  -2.249   4.291  1.00  0.00    +0.000 HD
ENDBRANCH   7   8
ENDBRANCH   4   7
ENDBRANCH   1   4
BRANCH   1  10
ATOM     10  C   UNL     1       3.341  -2.717   0.135  1.00  0.00    +0.000 C 
BRANCH  10  11
ATOM     11  O   UNL     1       2.498  -2.275  -0.930  1.00  0.00    +0.000 OA
ATOM     12  H   UNL     1       1.649  -2.736  -0.977  1.00  0.00    +0.000 HD
ENDBRANCH  10  11
BRANCH  10  13
ATOM     13  C   UNL     1       4.793  -2.755  -0.344  1.00  0.00    +0.000 C 
BRANCH  13  14
ATOM     14  O   UNL     1       4.910  -3.667  -1.438  1.00  0.00    +0.000 OA
ATOM     15  H   UNL     1       5.361  -4.493  -1.214  1.00  0.00    +0.000 HD
ENDBRANCH  13  14
BRANCH  13  16
ATOM     16  C   UNL     1       5.216  -1.357  -0.799  1.00  0.00    +0.000 C 
BRANCH  16  17
ATOM     17  O   UNL     1       6.058  -0.767   0.194  1.00  0.00    +0.000 OA
ATOM     18  H   UNL     1       5.936  -1.132   1.081  1.00  0.00    +0.000 HD
ENDBRANCH  16  17
ENDBRANCH  13  16
ENDBRANCH  10  13
ENDBRANCH   1  10
TORSDOF 11
ENDMDL
MODEL 6
REMARK VINA RESULT:    -4.731      1.272      2.783
REMARK INTER + INTRA:          -7.564
REMARK INTER:                  -7.809
REMARK INTRA:                   0.245
REMARK UNBOUND:                -0.620
REMARK  Name = X9X
REMARK  11 active torsions:
REMARK  status: ('A' for Active; 'I' for Inactive)
REMARK    1  A    between atoms: O_1  and  C_2
REMARK    2  A    between atoms: C_2  and  C_3
REMARK    3  A    between atoms: C_3  and  O_4
REMARK    4  A    between atoms: C_3  and  C_5
REMARK    5  A    between atoms: C_5  and  O_6
REMARK    6  A    between atoms: C_5  and  C_7
REMARK    7  A    between atoms: C_7  and  O_8
REMARK    8  A    between atoms: C_7  and  C_9
REMARK    9  A    between atoms: C_9  and  O_10
REMARK   10  A    between atoms: C_9  and  C_11
REMARK   11  A    between atoms: C_11  and  O_12
REMARK                            x       y       z     vdW  Elec       q    Type
REMARK                         _______ _______ _______ _____ _____    ______ ____
ROOT
ATOM      1  C   UNL     1       4.896  -2.431   1.160  1.00  0.00    +0.000 C 
ENDROOT
BRANCH   1   2
ATOM      2  O   UNL     1       5.984  -1.541   0.904  1.00  0.00    +0.000 OA
ATOM      3  H   UNL     1       5.712  -0.629   0.729  1.00  0.00    +0.000 HD
ENDBRANCH   1   2
BRANCH   1   4
ATOM      4  C   UNL     1       4.017  -2.535  -0.087  1.00  0.00    +0.000 C 
BRANCH   4   5
ATOM      5  O   UNL     1       4.575  -3.495  -0.986  1.00  0.00    +0.000 OA
ATOM      6  H   UNL     1       4.241  -4.394  -0.859  1.00  0.00    +0.000 HD
ENDBRANCH   4   5
BRANCH   4   7
ATOM      7  C   UNL     1       3.947  -1.172  -0.777  1.00  0.00    +0.000 C 
BRANCH   7   8
ATOM      8  O   UNL     1       2.600  -0.908  -1.178  1.00  0.00    +0.000 OA
ATOM      9  H   UNL     1       2.525  -0.354  -1.966  1.00  0.00    +0.000 HD
ENDBRANCH   7   8
ENDBRANCH   4   7
ENDBRANCH   1   4
BRANCH   1  10
ATOM     10  C   UNL     1       4.064  -1.899   2.328  1.00  0.00    +0.000 C 
BRANCH  10  11
ATOM     11  O   UNL     1       3.871  -0.491   2.174  1.00  0.00    +0.000 OA
ATOM     12  H   UNL     1       4.421   0.047   2.759  1.00  0.00    +0.000 HD
ENDBRANCH  10  11
BRANCH  10  13
ATOM     13  C   UNL     1       2.705  -2.601   2.350  1.00  0.00    +0.000 C 
BRANCH  13  14
ATOM     14  O   UNL     1       2.449  -3.105   3.662  1.00  0.00    +0.000 OA
ATOM     15  H   UNL     1       2.073  -3.995   3.675  1.00  0.00    +0.000 HD
ENDBRANCH  13  14
BRANCH  13  16
ATOM     16  C   UNL     1       1.610  -1.605   1.963  1.00  0.00    +0.000 C 
BRANCH  16  17
ATOM     17  O   UNL     1       1.423  -0.666   3.025  1.00  0.00    +0.000 OA
ATOM     18  H   UNL     1       2.071   0.051   3.035  1.00  0.00    +0.000 HD
ENDBRANCH  16  17
ENDBRANCH  13  16
ENDBRANCH  10  13
ENDBRANCH   1  10
TORSDOF 11
ENDMDL
MODEL 7
REMARK VINA RESULT:    -4.648      1.153      4.065
REMARK INTER + INTRA:          -7.442
REMARK INTER:                  -6.816
REMARK INTRA:                  -0.626
REMARK UNBOUND:                -0.620
REMARK  Name = X9X
REMARK  11 active torsions:
REMARK  status: ('A' for Active; 'I' for Inactive)
REMARK    1  A    between atoms: O_1  and  C_2
REMARK    2  A    between atoms: C_2  and  C_3
REMARK    3  A    between atoms: C_3  and  O_4
REMARK    4  A    between atoms: C_3  and  C_5
REMARK    5  A    between atoms: C_5  and  O_6
REMARK    6  A    between atoms: C_5  and  C_7
REMARK    7  A    between atoms: C_7  and  O_8
REMARK    8  A    between atoms: C_7  and  C_9
REMARK    9  A    between atoms: C_9  and  O_10
REMARK   10  A    between atoms: C_9  and  C_11
REMARK   11  A    between atoms: C_11  and  O_12
REMARK                            x       y       z     vdW  Elec       q    Type
REMARK                         _______ _______ _______ _____ _____    ______ ____
ROOT
ATOM      1  C   UNL     1       2.717  -3.338   1.282  1.00  0.00    +0.000 C 
ENDROOT
BRANCH   1   2
ATOM      2  O   UNL     1       1.768  -2.887   0.315  1.00  0.00    +0.000 OA
ATOM      3  H   UNL     1       1.846  -1.948   0.095  1.00  0.00    +0.000 HD
ENDBRANCH   1   2
BRANCH   1   4
ATOM      4  C   UNL     1       2.586  -2.502   2.556  1.00  0.00    +0.000 C 
BRANCH   4   5
ATOM      5  O   UNL     1       2.286  -3.358   3.660  1.00  0.00    +0.000 OA
ATOM      6  H   UNL     1       3.067  -3.694   4.120  1.00  0.00    +0.000 HD
ENDBRANCH   4   5
BRANCH   4   7
ATOM      7  C   UNL     1       1.459  -1.481   2.382  1.00  0.00    +0.000 C 
BRANCH   7   8
ATOM      8  O   UNL     1       1.795  -0.277   3.075  1.00  0.00    +0.000 OA
ATOM      9  H   UNL     1       1.233  -0.094   3.840  1.00  0.00    +0.000 HD
ENDBRANCH   7   8
ENDBRANCH   4   7
ENDBRANCH   1   4
BRANCH   1  10
ATOM     10  C   UNL     1       4.132  -3.188   0.717  1.00  0.00    +0.000 C 
BRANCH  10  11
ATOM     11  O   UNL     1       4.141  -3.584  -0.655  1.00  0.00    +0.000 OA
ATOM     12  H   UNL     1       4.779  -3.103  -1.199  1.00  0.00    +0.000 HD
ENDBRANCH  10  11
BRANCH  10  13
ATOM     13  C   UNL     1       4.575  -1.729   0.831  1.00  0.00    +0.000 C 
BRANCH  13  14
ATOM     14  O   UNL     1       5.853  -1.667   1.467  1.00  0.00    +0.000 OA
ATOM     15  H   UNL     1       5.971  -0.895   2.037  1.00  0.00    +0.000 HD
ENDBRANCH  13  14
BRANCH  13  16
ATOM     16  C   UNL     1       4.671  -1.115  -0.567  1.00  0.00    +0.000 C 
BRANCH  16  17
ATOM     17  O   UNL     1       3.358  -0.951  -1.107  1.00  0.00    +0.000 OA
ATOM     18  H   UNL     1       2.808  -1.744  -1.055  1.00  0.00    +0.000 HD
ENDBRANCH  16  17
ENDBRANCH  13  16
ENDBRANCH  10  13
ENDBRANCH   1  10
TORSDOF 11
ENDMDL
MODEL 8
REMARK VINA RESULT:    -4.569      1.068      2.283
REMARK INTER + INTRA:          -7.326
REMARK INTER:                  -6.505
REMARK INTRA:                  -0.820
REMARK UNBOUND:                -0.620
REMARK  Name = X9X
REMARK  11 active torsions:
REMARK  status: ('A' for Active; 'I' for Inactive)
REMARK    1  A    between atoms: O_1  and  C_2
REMARK    2  A    between atoms: C_2  and  C_3
REMARK    3  A    between atoms: C_3  and  O_4
REMARK    4  A    between atoms: C_3  and  C_5
REMARK    5  A    between atoms: C_5  and  O_6
REMARK    6  A    between atoms: C_5  and  C_7
REMARK    7  A    between atoms: C_7  and  O_8
REMARK    8  A    between atoms: C_7  and  C_9
REMARK    9  A    between atoms: C_9  and  O_10
REMARK   10  A    between atoms: C_9  and  C_11
REMARK   11  A    between atoms: C_11  and  O_12
REMARK                            x       y       z     vdW  Elec       q    Type
REMARK                         _______ _______ _______ _____ _____    ______ ____
ROOT
ATOM      1  C   UNL     1       3.626  -1.295  -0.272  1.00  0.00    +0.000 C 
ENDROOT
BRANCH   1   2
ATOM      2  O   UNL     1       2.457  -1.446  -1.080  1.00  0.00    +0.000 OA
ATOM      3  H   UNL     1       2.183  -2.365  -1.206  1.00  0.00    +0.000 HD
ENDBRANCH   1   2
BRANCH   1   4
ATOM      4  C   UNL     1       4.715  -2.249  -0.765  1.00  0.00    +0.000 C 
BRANCH   4   5
ATOM      5  O   UNL     1       4.264  -3.598  -0.631  1.00  0.00    +0.000 OA
ATOM      6  H   UNL     1       4.216  -4.081  -1.467  1.00  0.00    +0.000 HD
ENDBRANCH   4   5
BRANCH   4   7
ATOM      7  C   UNL     1       5.982  -2.050   0.068  1.00  0.00    +0.000 C 
BRANCH   7   8
ATOM      8  O   UNL     1       6.208  -0.652   0.267  1.00  0.00    +0.000 OA
ATOM      9  H   UNL     1       5.540  -0.219   0.815  1.00  0.00    +0.000 HD
ENDBRANCH   7   8
ENDBRANCH   4   7
ENDBRANCH   1   4
BRANCH   1  10
ATOM     10  C   UNL     1       3.284  -1.620   1.185  1.00  0.00    +0.000 C 
BRANCH  10  11
ATOM     11  O   UNL     1       3.631  -0.509   2.014  1.00  0.00    +0.000 OA
ATOM     12  H   UNL     1       3.944   0.264   1.525  1.00  0.00    +0.000 HD
ENDBRANCH  10  11
BRANCH  10  13
ATOM     13  C   UNL     1       1.785  -1.900   1.307  1.00  0.00    +0.000 C 
BRANCH  13  14
ATOM     14  O   UNL     1       1.489  -3.172   0.727  1.00  0.00    +0.000 OA
ATOM     15  H   UNL     1       1.869  -3.921   1.206  1.00  0.00    +0.000 HD
ENDBRANCH  13  14
BRANCH  13  16
ATOM     16  C   UNL     1       1.387  -1.909   2.784  1.00  0.00    +0.000 C 
BRANCH  16  17
ATOM     17  O   UNL     1       2.289  -2.742   3.516  1.00  0.00    +0.000 OA
ATOM     18  H   UNL     1       2.190  -3.686   3.333  1.00  0.00    +0.000 HD
ENDBRANCH  16  17
ENDBRANCH  13  16
ENDBRANCH  10  13
ENDBRANCH   1  10
TORSDOF 11
ENDMDL
MODEL 9
REMARK VINA RESULT:    -4.453     11.760     13.190
REMARK INTER + INTRA:          -7.156
REMARK INTER:                  -6.446
REMARK INTRA:                  -0.710
REMARK UNBOUND:                -0.620
REMARK  Name = X9X
REMARK  11 active torsions:
REMARK  status: ('A' for Active; 'I' for Inactive)
REMARK    1  A    between atoms: O_1  and  C_2
REMARK    2  A    between atoms: C_2  and  C_3
REMARK    3  A    between atoms: C_3  and  O_4
REMARK    4  A    between atoms: C_3  and  C_5
REMARK    5  A    between atoms: C_5  and  O_6
REMARK    6  A    between atoms: C_5  and  C_7
REMARK    7  A    between atoms: C_7  and  O_8
REMARK    8  A    between atoms: C_7  and  C_9
REMARK    9  A    between atoms: C_9  and  O_10
REMARK   10  A    between atoms: C_9  and  C_11
REMARK   11  A    between atoms: C_11  and  O_12
REMARK                            x       y       z     vdW  Elec       q    Type
REMARK                         _______ _______ _______ _____ _____    ______ ____
ROOT
ATOM      1  C   UNL     1      -8.464  -8.934  -0.626  1.00  0.00    +0.000 C 
ENDROOT
BRANCH   1   2
ATOM      2  O   UNL     1      -9.650  -9.173   0.134  1.00  0.00    +0.000 OA
ATOM      3  H   UNL     1      -9.758 -10.092   0.415  1.00  0.00    +0.000 HD
ENDBRANCH   1   2
BRANCH   1   4
ATOM      4  C   UNL     1      -8.314 -10.018  -1.695  1.00  0.00    +0.000 C 
BRANCH   4   5
ATOM      5  O   UNL     1      -7.186  -9.722  -2.519  1.00  0.00    +0.000 OA
ATOM      6  H   UNL     1      -7.390  -9.157  -3.277  1.00  0.00    +0.000 HD
ENDBRANCH   4   5
BRANCH   4   7
ATOM      7  C   UNL     1      -9.578 -10.062  -2.556  1.00  0.00    +0.000 C 
BRANCH   7   8
ATOM      8  O   UNL     1      -9.342 -10.877  -3.707  1.00  0.00    +0.000 OA
ATOM      9  H   UNL     1      -8.804 -11.660  -3.531  1.00  0.00    +0.000 HD
ENDBRANCH   7   8
ENDBRANCH   4   7
ENDBRANCH   1   4
BRANCH   1  10
ATOM     10  C   UNL     1      -7.248  -8.962   0.303  1.00  0.00    +0.000 C 
BRANCH  10  11
ATOM     11  O   UNL     1      -6.136  -8.345  -0.348  1.00  0.00    +0.000 OA
ATOM     12  H   UNL     1      -5.286  -8.516   0.080  1.00  0.00    +0.000 HD
ENDBRANCH  10  11
BRANCH  10  13
ATOM     13  C   UNL     1      -7.572  -8.202   1.590  1.00  0.00    +0.000 C 
BRANCH  13  14
ATOM     14  O   UNL     1      -8.132  -9.103   2.548  1.00  0.00    +0.000 OA
ATOM     15  H   UNL     1      -8.893  -8.745   3.026  1.00  0.00    +0.000 HD
ENDBRANCH  13  14
BRANCH  13  16
ATOM     16  C   UNL     1      -6.290  -7.589   2.157  1.00  0.00    +0.000 C 
BRANCH  16  17
ATOM     17  O   UNL     1      -6.025  -6.347   1.500  1.00  0.00    +0.000 OA
ATOM     18  H   UNL     1      -6.790  -5.970   1.046  1.00  0.00    +0.000 HD
ENDBRANCH  16  17
ENDBRANCH  13  16
ENDBRANCH  10  13
ENDBRANCH   1  10
TORSDOF 11
ENDMDL
