MODEL 1
REMARK VINA RESULT:    -5.456      0.000      0.000
REMARK INTER + INTRA:          -6.783
REMARK INTER:                  -6.573
REMARK INTRA:                  -0.210
REMARK UNBOUND:                -0.210
REMARK  Name = WEB
REMARK  6 active torsions:
REMARK  status: ('A' for Active; 'I' for Inactive)
REMARK    1  A    between atoms: C_1  and  O_2
REMARK    2  A    between atoms: C_1  and  C_3
REMARK    3  A    between atoms: C_3  and  O_4
REMARK    4  A    between atoms: C_5  and  O_6
REMARK    5  A    between atoms: C_7  and  O_8
REMARK    6  A    between atoms: C_9  and  O_10
REMARK                            x       y       z     vdW  Elec       q    Type
REMARK                         _______ _______ _______ _____ _____    ______ ____
ROOT
ATOM      1  C   UNL     1       4.516  -2.038   0.288  1.00  0.00    +0.000 C 
ATOM      2  C   UNL     1       3.219  -2.799  -0.000  1.00  0.00    +0.000 C 
ATOM      3  C   UNL     1       2.172  -2.425   1.054  1.00  0.00    +0.000 C 
ATOM      4  C   UNL     1       2.731  -2.734   2.446  1.00  0.00    +0.000 C 
ATOM      5  C   UNL     1       4.048  -1.976   2.639  1.00  0.00    +0.000 C 
ATOM      6  O   UNL     1       4.966  -2.347   1.608  1.00  0.00    +0.000 OA
ENDROOT
BRANCH   1   7
ATOM      7  O   UNL     1       4.277  -0.632   0.182  1.00  0.00    +0.000 OA
ATOM      8  H   UNL     1       3.486  -0.332   0.649  1.00  0.00    +0.000 HD
ENDBRANCH   1   7
BRANCH   2   9
ATOM      9  O   UNL     1       2.737  -2.447  -1.298  1.00  0.00    +0.000 OA
ATOM     10  H   UNL     1       2.642  -1.495  -1.437  1.00  0.00    +0.000 HD
ENDBRANCH   2   9
BRANCH   3  11
ATOM     11  O   UNL     1       1.874  -1.031   0.958  1.00  0.00    +0.000 OA
ATOM     12  H   UNL     1       2.556  -0.513   0.511  1.00  0.00    +0.000 HD
ENDBRANCH   3  11
BRANCH   4  13
ATOM     13  O   UNL     1       1.793  -2.322   3.441  1.00  0.00    +0.000 OA
ATOM     14  H   UNL     1       1.742  -2.914   4.204  1.00  0.00    +0.000 HD
ENDBRANCH   4  13
BRANCH   1  15
ATOM     15  C   UNL     1       5.585  -2.451  -0.725  1.00  0.00    +0.000 C 
BRANCH  15  16
ATOM     16  O   UNL     1       5.160  -3.632  -1.409  1.00  0.00    +0.000 OA
ATOM     17  H   UNL     1       4.749  -3.462  -2.269  1.00  0.00    +0.000 HD
ENDBRANCH  15  16
ENDBRANCH   1  15
TORSDOF 6
ENDMDL
MODEL 2
REMARK VINA RESULT:    -5.446      1.726      3.137
REMARK INTER + INTRA:          -6.771
REMARK INTER:                  -6.733
REMARK INTRA:                  -0.038
REMARK UNBOUND:                -0.210
REMARK  Name = WEB
REMARK  6 active torsions:
REMARK  status: ('A' for Active; 'I' for Inactive)
REMARK    1  A    between atoms: C_1  and  O_2
REMARK    2  A    between atoms: C_1  and  C_3
REMARK    3  A    between atoms: C_3  and  O_4
REMARK    4  A    between atoms: C_5  and  O_6
REMARK    5  A    between atoms: C_7  and  O_8
REMARK    6  A    between atoms: C_9  and  O_10
REMARK                            x       y       z     vdW  Elec       q    Type
REMARK                         _______ _______ _______ _____ _____    ______ ____
ROOT
ATOM      1  C   UNL     1       4.417  -1.548   2.642  1.00  0.00    +0.000 C 
ATOM      2  C   UNL     1       4.788  -2.129   1.275  1.00  0.00    +0.000 C 
ATOM      3  C   UNL     1       3.526  -2.228   0.413  1.00  0.00    +0.000 C 
ATOM      4  C   UNL     1       2.485  -3.081   1.146  1.00  0.00    +0.000 C 
ATOM      5  C   UNL     1       2.205  -2.463   2.518  1.00  0.00    +0.000 C 
ATOM      6  O   UNL     1       3.425  -2.371   3.257  1.00  0.00    +0.000 OA
ENDROOT
BRANCH   1   7
ATOM      7  O   UNL     1       3.903  -0.225   2.474  1.00  0.00    +0.000 OA
ATOM      8  H   UNL     1       3.820   0.272   3.299  1.00  0.00    +0.000 HD
ENDBRANCH   1   7
BRANCH   2   9
ATOM      9  O   UNL     1       5.738  -1.276   0.635  1.00  0.00    +0.000 OA
ATOM     10  H   UNL     1       6.533  -1.110   1.159  1.00  0.00    +0.000 HD
ENDBRANCH   2   9
BRANCH   3  11
ATOM     11  O   UNL     1       2.997  -0.920   0.187  1.00  0.00    +0.000 OA
ATOM     12  H   UNL     1       2.297  -0.889  -0.479  1.00  0.00    +0.000 HD
ENDBRANCH   3  11
BRANCH   4  13
ATOM     13  O   UNL     1       1.277  -3.121   0.384  1.00  0.00    +0.000 OA
ATOM     14  H   UNL     1       0.476  -3.203   0.920  1.00  0.00    +0.000 HD
ENDBRANCH   4  13
BRANCH   1  15
ATOM     15  C   UNL     1       5.663  -1.501   3.530  1.00  0.00    +0.000 C 
BRANCH  15  16
ATOM     16  O   UNL     1       5.272  -1.584   4.902  1.00  0.00    +0.000 OA
ATOM     17  H   UNL     1       5.846  -1.091   5.506  1.00  0.00    +0.000 HD
ENDBRANCH  15  16
ENDBRANCH   1  15
TORSDOF 6
ENDMDL
MODEL 3
REMARK VINA RESULT:    -5.075      1.310      3.889
REMARK INTER + INTRA:          -6.324
REMARK INTER:                  -6.261
REMARK INTRA:                  -0.063
REMARK UNBOUND:                -0.210
REMARK  Name = WEB
REMARK  6 active torsions:
REMARK  status: ('A' for Active; 'I' for Inactive)
REMARK    1  A    between atoms: C_1  and  O_2
REMARK    2  A    between atoms: C_1  and  C_3
REMARK    3  A    between atoms: C_3  and  O_4
REMARK    4  A    between atoms: C_5  and  O_6
REMARK    5  A    between atoms: C_7  and  O_8
REMARK    6  A    between atoms: C_9  and  O_10
REMARK                            x       y       z     vdW  Elec       q    Type
REMARK                         _______ _______ _______ _____ _____    ______ ____
ROOT
ATOM      1  C   UNL     1       2.381  -2.137   1.906  1.00  0.00    +0.000 C 
ATOM      2  C   UNL     1       3.750  -1.478   2.098  1.00  0.00    +0.000 C 
ATOM      3  C   UNL     1       4.492  -1.464   0.757  1.00  0.00    +0.000 C 
ATOM      4  C   UNL     1       4.605  -2.899   0.234  1.00  0.00    +0.000 C 
ATOM      5  C   UNL     1       3.203  -3.503   0.116  1.00  0.00    +0.000 C 
ATOM      6  O   UNL     1       2.557  -3.457   1.390  1.00  0.00    +0.000 OA
ENDROOT
BRANCH   1   7
ATOM      7  O   UNL     1       1.604  -1.364   0.989  1.00  0.00    +0.000 OA
ATOM      8  H   UNL     1       1.125  -0.632   1.400  1.00  0.00    +0.000 HD
ENDBRANCH   1   7
BRANCH   2   9
ATOM      9  O   UNL     1       3.575  -0.137   2.560  1.00  0.00    +0.000 OA
ATOM     10  H   UNL     1       2.794   0.304   2.198  1.00  0.00    +0.000 HD
ENDBRANCH   2   9
BRANCH   3  11
ATOM     11  O   UNL     1       3.767  -0.668  -0.183  1.00  0.00    +0.000 OA
ATOM     12  H   UNL     1       4.150   0.206  -0.336  1.00  0.00    +0.000 HD
ENDBRANCH   3  11
BRANCH   4  13
ATOM     13  O   UNL     1       5.231  -2.892  -1.050  1.00  0.00    +0.000 OA
ATOM     14  H   UNL     1       6.182  -3.068  -1.026  1.00  0.00    +0.000 HD
ENDBRANCH   4  13
BRANCH   1  15
ATOM     15  C   UNL     1       1.658  -2.207   3.253  1.00  0.00    +0.000 C 
BRANCH  15  16
ATOM     16  O   UNL     1       2.332  -3.135   4.107  1.00  0.00    +0.000 OA
ATOM     17  H   UNL     1       2.161  -2.998   5.049  1.00  0.00    +0.000 HD
ENDBRANCH  15  16
ENDBRANCH   1  15
TORSDOF 6
ENDMDL
MODEL 4
REMARK VINA RESULT:    -4.769      1.473      3.615
REMARK INTER + INTRA:          -5.955
REMARK INTER:                  -5.912
REMARK INTRA:                  -0.043
REMARK UNBOUND:                -0.210
REMARK  Name = WEB
REMARK  6 active torsions:
REMARK  status: ('A' for Active; 'I' for Inactive)
REMARK    1  A    between atoms: C_1  and  O_2
REMARK    2  A    between atoms: C_1  and  C_3
REMARK    3  A    between atoms: C_3  and  O_4
REMARK    4  A    between atoms: C_5  and  O_6
REMARK    5  A    between atoms: C_7  and  O_8
REMARK    6  A    between atoms: C_9  and  O_10
REMARK                            x       y       z     vdW  Elec       q    Type
REMARK                         _______ _______ _______ _____ _____    ______ ____
ROOT
ATOM      1  C   UNL     1       2.775  -2.169   1.083  1.00  0.00    +0.000 C 
ATOM      2  C   UNL     1       3.002  -1.319  -0.170  1.00  0.00    +0.000 C 
ATOM      3  C   UNL     1       4.455  -1.481  -0.630  1.00  0.00    +0.000 C 
ATOM      4  C   UNL     1       5.390  -1.087   0.518  1.00  0.00    +0.000 C 
ATOM      5  C   UNL     1       5.069  -1.945   1.745  1.00  0.00    +0.000 C 
ATOM      6  O   UNL     1       3.696  -1.772   2.101  1.00  0.00    +0.000 OA
ENDROOT
BRANCH   1   7
ATOM      7  O   UNL     1       2.978  -3.548   0.767  1.00  0.00    +0.000 OA
ATOM      8  H   UNL     1       2.306  -4.138   1.134  1.00  0.00    +0.000 HD
ENDBRANCH   1   7
BRANCH   2   9
ATOM      9  O   UNL     1       2.122  -1.753  -1.208  1.00  0.00    +0.000 OA
ATOM     10  H   UNL     1       1.430  -2.358  -0.909  1.00  0.00    +0.000 HD
ENDBRANCH   2   9
BRANCH   3  11
ATOM     11  O   UNL     1       4.692  -2.842  -0.993  1.00  0.00    +0.000 OA
ATOM     12  H   UNL     1       5.532  -2.987  -1.450  1.00  0.00    +0.000 HD
ENDBRANCH   3  11
BRANCH   4  13
ATOM     13  O   UNL     1       6.746  -1.303   0.126  1.00  0.00    +0.000 OA
ATOM     14  H   UNL     1       7.183  -2.025   0.598  1.00  0.00    +0.000 HD
ENDBRANCH   4  13
BRANCH   1  15
ATOM     15  C   UNL     1       1.343  -1.966   1.583  1.00  0.00    +0.000 C 
BRANCH  15  16
ATOM     16  O   UNL     1       1.373  -1.374   2.883  1.00  0.00    +0.000 OA
ATOM     17  H   UNL     1       2.241  -1.401   3.309  1.00  0.00    +0.000 HD
ENDBRANCH  15  16
ENDBRANCH   1  15
TORSDOF 6
ENDMDL
MODEL 5
REMARK VINA RESULT:    -4.526      9.255     10.487
REMARK INTER + INTRA:          -5.662
REMARK INTER:                  -5.619
REMARK INTRA:                  -0.043
REMARK UNBOUND:                -0.210
REMARK  Name = WEB
REMARK  6 active torsions:
REMARK  status: ('A' for Active; 'I' for Inactive)
REMARK    1  A    between atoms: C_1  and  O_2
REMARK    2  A    between atoms: C_1  and  C_3
REMARK    3  A    between atoms: C_3  and  O_4
REMARK    4  A    between atoms: C_5  and  O_6
REMARK    5  A    between atoms: C_7  and  O_8
REMARK    6  A    between atoms: C_9  and  O_10
REMARK                            x       y       z     vdW  Elec       q    Type
REMARK                         _______ _______ _______ _____ _____    ______ ____
ROOT
ATOM      1  C   UNL     1      12.675  -0.414   3.597  1.00  0.00    +0.000 C 
ATOM      2  C   UNL     1      12.717   0.971   4.250  1.00  0.00    +0.000 C 
ATOM      3  C   UNL     1      12.892   2.034   3.160  1.00  0.00    +0.000 C 
ATOM      4  C   UNL     1      14.163   1.728   2.362  1.00  0.00    +0.000 C 
ATOM      5  C   UNL     1      14.066   0.313   1.784  1.00  0.00    +0.000 C 
ATOM      6  O   UNL     1      13.873  -0.623   2.846  1.00  0.00    +0.000 OA
ENDROOT
BRANCH   1   7
ATOM      7  O   UNL     1      11.545  -0.497   2.726  1.00  0.00    +0.000 OA
ATOM      8  H   UNL     1      11.741  -0.889   1.864  1.00  0.00    +0.000 HD
ENDBRANCH   1   7
BRANCH   2   9
ATOM      9  O   UNL     1      11.496   1.204   4.953  1.00  0.00    +0.000 OA
ATOM     10  H   UNL     1      10.765   1.490   4.387  1.00  0.00    +0.000 HD
ENDBRANCH   2   9
BRANCH   3  11
ATOM     11  O   UNL     1      11.762   2.012   2.285  1.00  0.00    +0.000 OA
ATOM     12  H   UNL     1      11.409   2.888   2.077  1.00  0.00    +0.000 HD
ENDBRANCH   3  11
BRANCH   4  13
ATOM     13  O   UNL     1      14.298   2.671   1.298  1.00  0.00    +0.000 OA
ATOM     14  H   UNL     1      13.650   2.560   0.589  1.00  0.00    +0.000 HD
ENDBRANCH   4  13
BRANCH   1  15
ATOM     15  C   UNL     1      12.561  -1.485   4.683  1.00  0.00    +0.000 C 
BRANCH  15  16
ATOM     16  O   UNL     1      11.558  -2.433   4.313  1.00  0.00    +0.000 OA
ATOM     17  H   UNL     1      10.684  -2.249   4.687  1.00  0.00    +0.000 HD
ENDBRANCH  15  16
ENDBRANCH   1  15
TORSDOF 6
ENDMDL
MODEL 6
REMARK VINA RESULT:    -4.355     13.267     14.532
REMARK INTER + INTRA:          -5.457
REMARK INTER:                  -5.230
REMARK INTRA:                  -0.227
REMARK UNBOUND:                -0.210
REMARK  Name = WEB
REMARK  6 active torsions:
REMARK  status: ('A' for Active; 'I' for Inactive)
REMARK    1  A    between atoms: C_1  and  O_2
REMARK    2  A    between atoms: C_1  and  C_3
REMARK    3  A    between atoms: C_3  and  O_4
REMARK    4  A    between atoms: C_5  and  O_6
REMARK    5  A    between atoms: C_7  and  O_8
REMARK    6  A    between atoms: C_9  and  O_10
REMARK                            x       y       z     vdW  Elec       q    Type
REMARK                         _______ _______ _______ _____ _____    ______ ____
ROOT
ATOM      1  C   UNL     1      -8.449 -10.591   0.505  1.00  0.00    +0.000 C 
ATOM      2  C   UNL     1      -8.088 -10.596  -0.983  1.00  0.00    +0.000 C 
ATOM      3  C   UNL     1      -8.071  -9.154  -1.500  1.00  0.00    +0.000 C 
ATOM      4  C   UNL     1      -9.436  -8.511  -1.234  1.00  0.00    +0.000 C 
ATOM      5  C   UNL     1      -9.745  -8.588   0.264  1.00  0.00    +0.000 C 
ATOM      6  O   UNL     1      -9.714  -9.953   0.686  1.00  0.00    +0.000 OA
ENDROOT
BRANCH   1   7
ATOM      7  O   UNL     1      -7.447  -9.881   1.236  1.00  0.00    +0.000 OA
ATOM      8  H   UNL     1      -6.596 -10.337   1.281  1.00  0.00    +0.000 HD
ENDBRANCH   1   7
BRANCH   2   9
ATOM      9  O   UNL     1      -6.797 -11.181  -1.160  1.00  0.00    +0.000 OA
ATOM     10  H   UNL     1      -6.242 -11.156  -0.368  1.00  0.00    +0.000 HD
ENDBRANCH   2   9
BRANCH   3  11
ATOM     11  O   UNL     1      -7.054  -8.414  -0.821  1.00  0.00    +0.000 OA
ATOM     12  H   UNL     1      -6.405  -8.966  -0.365  1.00  0.00    +0.000 HD
ENDBRANCH   3  11
BRANCH   4  13
ATOM     13  O   UNL     1      -9.409  -7.144  -1.646  1.00  0.00    +0.000 OA
ATOM     14  H   UNL     1      -8.955  -6.555  -1.028  1.00  0.00    +0.000 HD
ENDBRANCH   4  13
BRANCH   1  15
ATOM     15  C   UNL     1      -8.526 -12.032   1.014  1.00  0.00    +0.000 C 
BRANCH  15  16
ATOM     16  O   UNL     1      -7.278 -12.393   1.610  1.00  0.00    +0.000 OA
ATOM     17  H   UNL     1      -7.240 -13.310   1.919  1.00  0.00    +0.000 HD
ENDBRANCH  15  16
ENDBRANCH   1  15
TORSDOF 6
ENDMDL
MODEL 7
REMARK VINA RESULT:    -4.343      9.492     10.689
REMARK INTER + INTRA:          -5.442
REMARK INTER:                  -5.190
REMARK INTRA:                  -0.252
REMARK UNBOUND:                -0.210
REMARK  Name = WEB
REMARK  6 active torsions:
REMARK  status: ('A' for Active; 'I' for Inactive)
REMARK    1  A    between atoms: C_1  and  O_2
REMARK    2  A    between atoms: C_1  and  C_3
REMARK    3  A    between atoms: C_3  and  O_4
REMARK    4  A    between atoms: C_5  and  O_6
REMARK    5  A    between atoms: C_7  and  O_8
REMARK    6  A    between atoms: C_9  and  O_10
REMARK                            x       y       z     vdW  Elec       q    Type
REMARK                         _______ _______ _______ _____ _____    ______ ____
ROOT
ATOM      1  C   UNL     1      13.866   1.657   2.737  1.00  0.00    +0.000 C 
ATOM      2  C   UNL     1      13.868   0.135   2.568  1.00  0.00    +0.000 C 
ATOM      3  C   UNL     1      12.754  -0.466   3.431  1.00  0.00    +0.000 C 
ATOM      4  C   UNL     1      12.965  -0.042   4.887  1.00  0.00    +0.000 C 
ATOM      5  C   UNL     1      12.999   1.487   4.965  1.00  0.00    +0.000 C 
ATOM      6  O   UNL     1      14.037   1.983   4.117  1.00  0.00    +0.000 OA
ENDROOT
BRANCH   1   7
ATOM      7  O   UNL     1      12.624   2.187   2.270  1.00  0.00    +0.000 OA
ATOM      8  H   UNL     1      12.219   1.672   1.560  1.00  0.00    +0.000 HD
ENDBRANCH   1   7
BRANCH   2   9
ATOM      9  O   UNL     1      13.640  -0.194   1.197  1.00  0.00    +0.000 OA
ATOM     10  H   UNL     1      13.702  -1.139   1.004  1.00  0.00    +0.000 HD
ENDBRANCH   2   9
BRANCH   3  11
ATOM     11  O   UNL     1      11.486   0.009   2.973  1.00  0.00    +0.000 OA
ATOM     12  H   UNL     1      11.158  -0.443   2.185  1.00  0.00    +0.000 HD
ENDBRANCH   3  11
BRANCH   4  13
ATOM     13  O   UNL     1      11.892  -0.537   5.690  1.00  0.00    +0.000 OA
ATOM     14  H   UNL     1      11.679   0.021   6.451  1.00  0.00    +0.000 HD
ENDBRANCH   4  13
BRANCH   1  15
ATOM     15  C   UNL     1      15.014   2.260   1.924  1.00  0.00    +0.000 C 
BRANCH  15  16
ATOM     16  O   UNL     1      16.052   1.289   1.775  1.00  0.00    +0.000 OA
ATOM     17  H   UNL     1      15.741   0.423   1.477  1.00  0.00    +0.000 HD
ENDBRANCH  15  16
ENDBRANCH   1  15
TORSDOF 6
ENDMDL
MODEL 8
REMARK VINA RESULT:    -4.230     12.924     14.348
REMARK INTER + INTRA:          -5.305
REMARK INTER:                  -5.066
REMARK INTRA:                  -0.240
REMARK UNBOUND:                -0.210
REMARK  Name = WEB
REMARK  6 active torsions:
REMARK  status: ('A' for Active; 'I' for Inactive)
REMARK    1  A    between atoms: C_1  and  O_2
REMARK    2  A    between atoms: C_1  and  C_3
REMARK    3  A    between atoms: C_3  and  O_4
REMARK    4  A    between atoms: C_5  and  O_6
REMARK    5  A    between atoms: C_7  and  O_8
REMARK    6  A    between atoms: C_9  and  O_10
REMARK                            x       y       z     vdW  Elec       q    Type
REMARK                         _______ _______ _______ _____ _____    ______ ____
ROOT
ATOM      1  C   UNL     1      -8.191  -8.733   0.328  1.00  0.00    +0.000 C 
ATOM      2  C   UNL     1      -8.525 -10.204   0.065  1.00  0.00    +0.000 C 
ATOM      3  C   UNL     1      -8.631 -10.432  -1.447  1.00  0.00    +0.000 C 
ATOM      4  C   UNL     1      -9.688  -9.484  -2.022  1.00  0.00    +0.000 C 
ATOM      5  C   UNL     1      -9.309  -8.041  -1.677  1.00  0.00    +0.000 C 
ATOM      6  O   UNL     1      -9.196  -7.905  -0.259  1.00  0.00    +0.000 OA
ENDROOT
BRANCH   1   7
ATOM      7  O   UNL     1      -6.920  -8.422  -0.248  1.00  0.00    +0.000 OA
ATOM      8  H   UNL     1      -6.886  -8.534  -1.207  1.00  0.00    +0.000 HD
ENDBRANCH   1   7
BRANCH   2   9
ATOM      9  O   UNL     1      -7.491 -11.032   0.600  1.00  0.00    +0.000 OA
ATOM     10  H   UNL     1      -7.197 -11.732   0.001  1.00  0.00    +0.000 HD
ENDBRANCH   2   9
BRANCH   3  11
ATOM     11  O   UNL     1      -7.368 -10.169  -2.061  1.00  0.00    +0.000 OA
ATOM     12  H   UNL     1      -7.294 -10.499  -2.966  1.00  0.00    +0.000 HD
ENDBRANCH   3  11
BRANCH   4  13
ATOM     13  O   UNL     1      -9.745  -9.636  -3.441  1.00  0.00    +0.000 OA
ATOM     14  H   UNL     1      -9.031 -10.175  -3.809  1.00  0.00    +0.000 HD
ENDBRANCH   4  13
BRANCH   1  15
ATOM     15  C   UNL     1      -8.141  -8.485   1.837  1.00  0.00    +0.000 C 
BRANCH  15  16
ATOM     16  O   UNL     1      -6.831  -8.780   2.324  1.00  0.00    +0.000 OA
ATOM     17  H   UNL     1      -6.128  -8.644   1.673  1.00  0.00    +0.000 HD
ENDBRANCH  15  16
ENDBRANCH   1  15
TORSDOF 6
ENDMDL
