MODEL 1
REMARK VINA RESULT:    -5.952      0.000      0.000
REMARK INTER + INTRA:          -7.402
REMARK INTER:                  -7.170
REMARK INTRA:                  -0.232
REMARK UNBOUND:                -0.232
REMARK  Name = ALL
REMARK  6 active torsions:
REMARK  status: ('A' for Active; 'I' for Inactive)
REMARK    1  A    between atoms: C_1  and  O_7
REMARK    2  A    between atoms: C_2  and  O_8
REMARK    3  A    between atoms: C_3  and  O_9
REMARK    4  A    between atoms: C_4  and  O_10
REMARK    5  A    between atoms: C_5  and  C_6
REMARK    6  A    between atoms: C_6  and  O_12
REMARK                            x       y       z     vdW  Elec       q    Type
REMARK                         _______ _______ _______ _____ _____    ______ ____
ROOT
ATOM      1  C   UNL     1       4.124  -1.893   2.417  1.00  0.00    +0.000 C 
ATOM      2  C   UNL     1       2.944  -1.035   1.955  1.00  0.00    +0.000 C 
ATOM      3  C   UNL     1       2.318  -1.669   0.710  1.00  0.00    +0.000 C 
ATOM      4  C   UNL     1       3.392  -1.810  -0.374  1.00  0.00    +0.000 C 
ATOM      5  C   UNL     1       4.556  -2.639   0.179  1.00  0.00    +0.000 C 
ATOM      6  O   UNL     1       5.071  -2.009   1.353  1.00  0.00    +0.000 OA
ENDROOT
BRANCH   1   7
ATOM      7  O   UNL     1       4.748  -1.278   3.546  1.00  0.00    +0.000 OA
ATOM      8  H   UNL     1       4.805  -0.315   3.486  1.00  0.00    +0.000 HD
ENDBRANCH   1   7
BRANCH   2   9
ATOM      9  O   UNL     1       1.968  -0.965   2.997  1.00  0.00    +0.000 OA
ATOM     10  H   UNL     1       1.977  -0.134   3.489  1.00  0.00    +0.000 HD
ENDBRANCH   2   9
BRANCH   3  11
ATOM     11  O   UNL     1       1.799  -2.959   1.039  1.00  0.00    +0.000 OA
ATOM     12  H   UNL     1       1.584  -3.070   1.974  1.00  0.00    +0.000 HD
ENDBRANCH   3  11
BRANCH   4  13
ATOM     13  O   UNL     1       2.838  -2.467  -1.515  1.00  0.00    +0.000 OA
ATOM     14  H   UNL     1       3.498  -2.865  -2.098  1.00  0.00    +0.000 HD
ENDBRANCH   4  13
BRANCH   5  15
ATOM     15  C   UNL     1       5.659  -2.733  -0.876  1.00  0.00    +0.000 C 
BRANCH  15  16
ATOM     16  O   UNL     1       5.317  -3.737  -1.835  1.00  0.00    +0.000 OA
ATOM     17  H   UNL     1       5.282  -3.415  -2.746  1.00  0.00    +0.000 HD
ENDBRANCH  15  16
ENDBRANCH   5  15
TORSDOF 6
ENDMDL
MODEL 2
REMARK VINA RESULT:    -5.641      1.093      2.734
REMARK INTER + INTRA:          -7.027
REMARK INTER:                  -6.974
REMARK INTRA:                  -0.053
REMARK UNBOUND:                -0.232
REMARK  Name = ALL
REMARK  6 active torsions:
REMARK  status: ('A' for Active; 'I' for Inactive)
REMARK    1  A    between atoms: C_1  and  O_7
REMARK    2  A    between atoms: C_2  and  O_8
REMARK    3  A    between atoms: C_3  and  O_9
REMARK    4  A    between atoms: C_4  and  O_10
REMARK    5  A    between atoms: C_5  and  C_6
REMARK    6  A    between atoms: C_6  and  O_12
REMARK                            x       y       z     vdW  Elec       q    Type
REMARK                         _______ _______ _______ _____ _____    ______ ____
ROOT
ATOM      1  C   UNL     1       2.031  -2.131   0.701  1.00  0.00    +0.000 C 
ATOM      2  C   UNL     1       2.473  -2.463   2.128  1.00  0.00    +0.000 C 
ATOM      3  C   UNL     1       3.833  -1.814   2.398  1.00  0.00    +0.000 C 
ATOM      4  C   UNL     1       4.838  -2.304   1.350  1.00  0.00    +0.000 C 
ATOM      5  C   UNL     1       4.304  -1.976  -0.048  1.00  0.00    +0.000 C 
ATOM      6  O   UNL     1       3.023  -2.585  -0.222  1.00  0.00    +0.000 OA
ENDROOT
BRANCH   1   7
ATOM      7  O   UNL     1       0.787  -2.779   0.423  1.00  0.00    +0.000 OA
ATOM      8  H   UNL     1       0.831  -3.744   0.462  1.00  0.00    +0.000 HD
ENDBRANCH   1   7
BRANCH   2   9
ATOM      9  O   UNL     1       1.510  -1.959   3.057  1.00  0.00    +0.000 OA
ATOM     10  H   UNL     1       1.389  -1.001   3.016  1.00  0.00    +0.000 HD
ENDBRANCH   2   9
BRANCH   3  11
ATOM     11  O   UNL     1       3.710  -0.393   2.315  1.00  0.00    +0.000 OA
ATOM     12  H   UNL     1       3.480   0.031   3.152  1.00  0.00    +0.000 HD
ENDBRANCH   3  11
BRANCH   4  13
ATOM     13  O   UNL     1       6.092  -1.649   1.547  1.00  0.00    +0.000 OA
ATOM     14  H   UNL     1       6.859  -2.197   1.333  1.00  0.00    +0.000 HD
ENDBRANCH   4  13
BRANCH   5  15
ATOM     15  C   UNL     1       5.272  -2.515  -1.102  1.00  0.00    +0.000 C 
BRANCH  15  16
ATOM     16  O   UNL     1       4.922  -3.864  -1.426  1.00  0.00    +0.000 OA
ATOM     17  H   UNL     1       4.063  -3.954  -1.858  1.00  0.00    +0.000 HD
ENDBRANCH  15  16
ENDBRANCH   5  15
TORSDOF 6
ENDMDL
MODEL 3
REMARK VINA RESULT:    -5.149      1.512      3.737
REMARK INTER + INTRA:          -6.435
REMARK INTER:                  -6.384
REMARK INTRA:                  -0.050
REMARK UNBOUND:                -0.232
REMARK  Name = ALL
REMARK  6 active torsions:
REMARK  status: ('A' for Active; 'I' for Inactive)
REMARK    1  A    between atoms: C_1  and  O_7
REMARK    2  A    between atoms: C_2  and  O_8
REMARK    3  A    between atoms: C_3  and  O_9
REMARK    4  A    between atoms: C_4  and  O_10
REMARK    5  A    between atoms: C_5  and  C_6
REMARK    6  A    between atoms: C_6  and  O_12
REMARK                            x       y       z     vdW  Elec       q    Type
REMARK                         _______ _______ _______ _____ _____    ______ ____
ROOT
ATOM      1  C   UNL     1       4.145  -1.196   0.079  1.00  0.00    +0.000 C 
ATOM      2  C   UNL     1       3.118  -2.321  -0.075  1.00  0.00    +0.000 C 
ATOM      3  C   UNL     1       2.292  -2.426   1.210  1.00  0.00    +0.000 C 
ATOM      4  C   UNL     1       3.236  -2.659   2.394  1.00  0.00    +0.000 C 
ATOM      5  C   UNL     1       4.258  -1.519   2.452  1.00  0.00    +0.000 C 
ATOM      6  O   UNL     1       4.970  -1.458   1.215  1.00  0.00    +0.000 OA
ENDROOT
BRANCH   1   7
ATOM      7  O   UNL     1       4.956  -1.128  -1.096  1.00  0.00    +0.000 OA
ATOM      8  H   UNL     1       4.880  -1.901  -1.671  1.00  0.00    +0.000 HD
ENDBRANCH   1   7
BRANCH   2   9
ATOM      9  O   UNL     1       2.254  -2.033  -1.176  1.00  0.00    +0.000 OA
ATOM     10  H   UNL     1       1.984  -1.107  -1.232  1.00  0.00    +0.000 HD
ENDBRANCH   2   9
BRANCH   3  11
ATOM     11  O   UNL     1       1.563  -1.215   1.411  1.00  0.00    +0.000 OA
ATOM     12  H   UNL     1       0.951  -1.000   0.695  1.00  0.00    +0.000 HD
ENDBRANCH   3  11
BRANCH   4  13
ATOM     13  O   UNL     1       2.483  -2.686   3.608  1.00  0.00    +0.000 OA
ATOM     14  H   UNL     1       2.918  -2.244   4.350  1.00  0.00    +0.000 HD
ENDBRANCH   4  13
BRANCH   5  15
ATOM     15  C   UNL     1       5.242  -1.775   3.595  1.00  0.00    +0.000 C 
BRANCH  15  16
ATOM     16  O   UNL     1       5.353  -0.598   4.401  1.00  0.00    +0.000 OA
ATOM     17  H   UNL     1       6.127  -0.589   4.979  1.00  0.00    +0.000 HD
ENDBRANCH  15  16
ENDBRANCH   5  15
TORSDOF 6
ENDMDL
MODEL 4
REMARK VINA RESULT:    -4.924      1.300      3.599
REMARK INTER + INTRA:          -6.163
REMARK INTER:                  -6.101
REMARK INTRA:                  -0.062
REMARK UNBOUND:                -0.232
REMARK  Name = ALL
REMARK  6 active torsions:
REMARK  status: ('A' for Active; 'I' for Inactive)
REMARK    1  A    between atoms: C_1  and  O_7
REMARK    2  A    between atoms: C_2  and  O_8
REMARK    3  A    between atoms: C_3  and  O_9
REMARK    4  A    between atoms: C_4  and  O_10
REMARK    5  A    between atoms: C_5  and  C_6
REMARK    6  A    between atoms: C_6  and  O_12
REMARK                            x       y       z     vdW  Elec       q    Type
REMARK                         _______ _______ _______ _____ _____    ______ ____
ROOT
ATOM      1  C   UNL     1       4.882  -1.613   1.037  1.00  0.00    +0.000 C 
ATOM      2  C   UNL     1       4.621  -2.723   0.015  1.00  0.00    +0.000 C 
ATOM      3  C   UNL     1       3.164  -2.645  -0.451  1.00  0.00    +0.000 C 
ATOM      4  C   UNL     1       2.243  -2.750   0.769  1.00  0.00    +0.000 C 
ATOM      5  C   UNL     1       2.596  -1.638   1.762  1.00  0.00    +0.000 C 
ATOM      6  O   UNL     1       3.972  -1.751   2.130  1.00  0.00    +0.000 OA
ENDROOT
BRANCH   1   7
ATOM      7  O   UNL     1       6.224  -1.714   1.517  1.00  0.00    +0.000 OA
ATOM      8  H   UNL     1       6.376  -1.260   2.357  1.00  0.00    +0.000 HD
ENDBRANCH   1   7
BRANCH   2   9
ATOM      9  O   UNL     1       5.491  -2.554  -1.107  1.00  0.00    +0.000 OA
ATOM     10  H   UNL     1       6.395  -2.854  -0.951  1.00  0.00    +0.000 HD
ENDBRANCH   2   9
BRANCH   3  11
ATOM     11  O   UNL     1       2.940  -1.399  -1.114  1.00  0.00    +0.000 OA
ATOM     12  H   UNL     1       3.738  -0.867  -1.232  1.00  0.00    +0.000 HD
ENDBRANCH   3  11
BRANCH   4  13
ATOM     13  O   UNL     1       0.883  -2.605   0.355  1.00  0.00    +0.000 OA
ATOM     14  H   UNL     1       0.579  -1.688   0.317  1.00  0.00    +0.000 HD
ENDBRANCH   4  13
BRANCH   5  15
ATOM     15  C   UNL     1       1.721  -1.772   3.009  1.00  0.00    +0.000 C 
BRANCH  15  16
ATOM     16  O   UNL     1       2.159  -2.894   3.780  1.00  0.00    +0.000 OA
ATOM     17  H   UNL     1       1.700  -3.718   3.570  1.00  0.00    +0.000 HD
ENDBRANCH  15  16
ENDBRANCH   5  15
TORSDOF 6
ENDMDL
MODEL 5
REMARK VINA RESULT:    -4.710      1.310      3.612
REMARK INTER + INTRA:          -5.906
REMARK INTER:                  -5.845
REMARK INTRA:                  -0.061
REMARK UNBOUND:                -0.232
REMARK  Name = ALL
REMARK  6 active torsions:
REMARK  status: ('A' for Active; 'I' for Inactive)
REMARK    1  A    between atoms: C_1  and  O_7
REMARK    2  A    between atoms: C_2  and  O_8
REMARK    3  A    between atoms: C_3  and  O_9
REMARK    4  A    between atoms: C_4  and  O_10
REMARK    5  A    between atoms: C_5  and  C_6
REMARK    6  A    between atoms: C_6  and  O_12
REMARK                            x       y       z     vdW  Elec       q    Type
REMARK                         _______ _______ _______ _____ _____    ______ ____
ROOT
ATOM      1  C   UNL     1       2.298  -2.030   1.147  1.00  0.00    +0.000 C 
ATOM      2  C   UNL     1       2.902  -1.455  -0.137  1.00  0.00    +0.000 C 
ATOM      3  C   UNL     1       4.389  -1.815  -0.199  1.00  0.00    +0.000 C 
ATOM      4  C   UNL     1       5.085  -1.285   1.059  1.00  0.00    +0.000 C 
ATOM      5  C   UNL     1       4.396  -1.868   2.297  1.00  0.00    +0.000 C 
ATOM      6  O   UNL     1       3.011  -1.521   2.276  1.00  0.00    +0.000 OA
ENDROOT
BRANCH   1   7
ATOM      7  O   UNL     1       0.923  -1.651   1.238  1.00  0.00    +0.000 OA
ATOM      8  H   UNL     1       0.785  -0.700   1.349  1.00  0.00    +0.000 HD
ENDBRANCH   1   7
BRANCH   2   9
ATOM      9  O   UNL     1       2.229  -2.007  -1.271  1.00  0.00    +0.000 OA
ATOM     10  H   UNL     1       1.717  -2.802  -1.075  1.00  0.00    +0.000 HD
ENDBRANCH   2   9
BRANCH   3  11
ATOM     11  O   UNL     1       4.535  -3.235  -0.263  1.00  0.00    +0.000 OA
ATOM     12  H   UNL     1       4.639  -3.580  -1.160  1.00  0.00    +0.000 HD
ENDBRANCH   3  11
BRANCH   4  13
ATOM     13  O   UNL     1       6.458  -1.678   1.048  1.00  0.00    +0.000 OA
ATOM     14  H   UNL     1       6.964  -1.361   1.809  1.00  0.00    +0.000 HD
ENDBRANCH   4  13
BRANCH   5  15
ATOM     15  C   UNL     1       5.046  -1.296   3.558  1.00  0.00    +0.000 C 
BRANCH  15  16
ATOM     16  O   UNL     1       6.404  -1.738   3.636  1.00  0.00    +0.000 OA
ATOM     17  H   UNL     1       6.578  -2.561   3.160  1.00  0.00    +0.000 HD
ENDBRANCH  15  16
ENDBRANCH   5  15
TORSDOF 6
ENDMDL
MODEL 6
REMARK VINA RESULT:    -4.695      1.278      3.136
REMARK INTER + INTRA:          -5.888
REMARK INTER:                  -5.667
REMARK INTRA:                  -0.221
REMARK UNBOUND:                -0.232
REMARK  Name = ALL
REMARK  6 active torsions:
REMARK  status: ('A' for Active; 'I' for Inactive)
REMARK    1  A    between atoms: C_1  and  O_7
REMARK    2  A    between atoms: C_2  and  O_8
REMARK    3  A    between atoms: C_3  and  O_9
REMARK    4  A    between atoms: C_4  and  O_10
REMARK    5  A    between atoms: C_5  and  C_6
REMARK    6  A    between atoms: C_6  and  O_12
REMARK                            x       y       z     vdW  Elec       q    Type
REMARK                         _______ _______ _______ _____ _____    ______ ____
ROOT
ATOM      1  C   UNL     1       4.565  -1.117   2.366  1.00  0.00    +0.000 C 
ATOM      2  C   UNL     1       5.427  -2.070   1.535  1.00  0.00    +0.000 C 
ATOM      3  C   UNL     1       4.939  -2.054   0.084  1.00  0.00    +0.000 C 
ATOM      4  C   UNL     1       3.455  -2.435   0.051  1.00  0.00    +0.000 C 
ATOM      5  C   UNL     1       2.669  -1.466   0.940  1.00  0.00    +0.000 C 
ATOM      6  O   UNL     1       3.194  -1.509   2.268  1.00  0.00    +0.000 OA
ENDROOT
BRANCH   1   7
ATOM      7  O   UNL     1       4.980  -1.168   3.733  1.00  0.00    +0.000 OA
ATOM      8  H   UNL     1       4.269  -0.995   4.365  1.00  0.00    +0.000 HD
ENDBRANCH   1   7
BRANCH   2   9
ATOM      9  O   UNL     1       6.792  -1.646   1.585  1.00  0.00    +0.000 OA
ATOM     10  H   UNL     1       6.959  -0.806   1.139  1.00  0.00    +0.000 HD
ENDBRANCH   2   9
BRANCH   3  11
ATOM     11  O   UNL     1       5.109  -0.745  -0.464  1.00  0.00    +0.000 OA
ATOM     12  H   UNL     1       4.528  -0.078  -0.075  1.00  0.00    +0.000 HD
ENDBRANCH   3  11
BRANCH   4  13
ATOM     13  O   UNL     1       2.970  -2.353  -1.290  1.00  0.00    +0.000 OA
ATOM     14  H   UNL     1       2.164  -2.864  -1.448  1.00  0.00    +0.000 HD
ENDBRANCH   4  13
BRANCH   5  15
ATOM     15  C   UNL     1       1.196  -1.876   0.960  1.00  0.00    +0.000 C 
BRANCH  15  16
ATOM     16  O   UNL     1       1.064  -3.207   0.453  1.00  0.00    +0.000 OA
ATOM     17  H   UNL     1       1.098  -3.892   1.134  1.00  0.00    +0.000 HD
ENDBRANCH  15  16
ENDBRANCH   5  15
TORSDOF 6
ENDMDL
MODEL 7
REMARK VINA RESULT:    -4.475      1.511      4.351
REMARK INTER + INTRA:          -5.623
REMARK INTER:                  -5.378
REMARK INTRA:                  -0.245
REMARK UNBOUND:                -0.232
REMARK  Name = ALL
REMARK  6 active torsions:
REMARK  status: ('A' for Active; 'I' for Inactive)
REMARK    1  A    between atoms: C_1  and  O_7
REMARK    2  A    between atoms: C_2  and  O_8
REMARK    3  A    between atoms: C_3  and  O_9
REMARK    4  A    between atoms: C_4  and  O_10
REMARK    5  A    between atoms: C_5  and  C_6
REMARK    6  A    between atoms: C_6  and  O_12
REMARK                            x       y       z     vdW  Elec       q    Type
REMARK                         _______ _______ _______ _____ _____    ______ ____
ROOT
ATOM      1  C   UNL     1       3.026  -2.209  -0.256  1.00  0.00    +0.000 C 
ATOM      2  C   UNL     1       4.034  -1.063  -0.134  1.00  0.00    +0.000 C 
ATOM      3  C   UNL     1       4.802  -1.207   1.182  1.00  0.00    +0.000 C 
ATOM      4  C   UNL     1       3.804  -1.229   2.345  1.00  0.00    +0.000 C 
ATOM      5  C   UNL     1       2.805  -2.369   2.126  1.00  0.00    +0.000 C 
ATOM      6  O   UNL     1       2.148  -2.190   0.871  1.00  0.00    +0.000 OA
ENDROOT
BRANCH   1   7
ATOM      7  O   UNL     1       2.266  -2.049  -1.457  1.00  0.00    +0.000 OA
ATOM      8  H   UNL     1       1.321  -2.218  -1.348  1.00  0.00    +0.000 HD
ENDBRANCH   1   7
BRANCH   2   9
ATOM      9  O   UNL     1       4.950  -1.114  -1.230  1.00  0.00    +0.000 OA
ATOM     10  H   UNL     1       5.848  -1.366  -0.980  1.00  0.00    +0.000 HD
ENDBRANCH   2   9
BRANCH   3  11
ATOM     11  O   UNL     1       5.548  -2.426   1.170  1.00  0.00    +0.000 OA
ATOM     12  H   UNL     1       5.331  -3.013   0.434  1.00  0.00    +0.000 HD
ENDBRANCH   3  11
BRANCH   4  13
ATOM     13  O   UNL     1       4.504  -1.436   3.573  1.00  0.00    +0.000 OA
ATOM     14  H   UNL     1       5.242  -2.058   3.504  1.00  0.00    +0.000 HD
ENDBRANCH   4  13
BRANCH   5  15
ATOM     15  C   UNL     1       1.769  -2.360   3.251  1.00  0.00    +0.000 C 
BRANCH  15  16
ATOM     16  O   UNL     1       2.243  -3.154   4.342  1.00  0.00    +0.000 OA
ATOM     17  H   UNL     1       2.122  -4.105   4.218  1.00  0.00    +0.000 HD
ENDBRANCH  15  16
ENDBRANCH   5  15
TORSDOF 6
ENDMDL
MODEL 8
REMARK VINA RESULT:    -4.444      9.498     10.689
REMARK INTER + INTRA:          -5.585
REMARK INTER:                  -5.361
REMARK INTRA:                  -0.225
REMARK UNBOUND:                -0.232
REMARK  Name = ALL
REMARK  6 active torsions:
REMARK  status: ('A' for Active; 'I' for Inactive)
REMARK    1  A    between atoms: C_1  and  O_7
REMARK    2  A    between atoms: C_2  and  O_8
REMARK    3  A    between atoms: C_3  and  O_9
REMARK    4  A    between atoms: C_4  and  O_10
REMARK    5  A    between atoms: C_5  and  C_6
REMARK    6  A    between atoms: C_6  and  O_12
REMARK                            x       y       z     vdW  Elec       q    Type
REMARK                         _______ _______ _______ _____ _____    ______ ____
ROOT
ATOM      1  C   UNL     1      12.002   1.479   4.303  1.00  0.00    +0.000 C 
ATOM      2  C   UNL     1      12.457   2.055   2.960  1.00  0.00    +0.000 C 
ATOM      3  C   UNL     1      13.211   0.975   2.179  1.00  0.00    +0.000 C 
ATOM      4  C   UNL     1      14.387   0.475   3.024  1.00  0.00    +0.000 C 
ATOM      5  C   UNL     1      13.856  -0.041   4.366  1.00  0.00    +0.000 C 
ATOM      6  O   UNL     1      13.140   1.004   5.026  1.00  0.00    +0.000 OA
ENDROOT
BRANCH   1   7
ATOM      7  O   UNL     1      11.345   2.498   5.061  1.00  0.00    +0.000 OA
ATOM      8  H   UNL     1      10.866   2.166   5.832  1.00  0.00    +0.000 HD
ENDBRANCH   1   7
BRANCH   2   9
ATOM      9  O   UNL     1      11.315   2.477   2.210  1.00  0.00    +0.000 OA
ATOM     10  H   UNL     1      10.474   2.335   2.661  1.00  0.00    +0.000 HD
ENDBRANCH   2   9
BRANCH   3  11
ATOM     11  O   UNL     1      12.330  -0.113   1.894  1.00  0.00    +0.000 OA
ATOM     12  H   UNL     1      12.782  -0.943   1.691  1.00  0.00    +0.000 HD
ENDBRANCH   3  11
BRANCH   4  13
ATOM     13  O   UNL     1      15.055  -0.584   2.337  1.00  0.00    +0.000 OA
ATOM     14  H   UNL     1      15.686  -0.282   1.669  1.00  0.00    +0.000 HD
ENDBRANCH   4  13
BRANCH   5  15
ATOM     15  C   UNL     1      15.030  -0.486   5.240  1.00  0.00    +0.000 C 
BRANCH  15  16
ATOM     16  O   UNL     1      15.490  -1.767   4.803  1.00  0.00    +0.000 OA
ATOM     17  H   UNL     1      15.303  -2.484   5.423  1.00  0.00    +0.000 HD
ENDBRANCH  15  16
ENDBRANCH   5  15
TORSDOF 6
ENDMDL
MODEL 9
REMARK VINA RESULT:    -4.370     11.847     13.628
REMARK INTER + INTRA:          -5.496
REMARK INTER:                  -5.245
REMARK INTRA:                  -0.251
REMARK UNBOUND:                -0.232
REMARK  Name = ALL
REMARK  6 active torsions:
REMARK  status: ('A' for Active; 'I' for Inactive)
REMARK    1  A    between atoms: C_1  and  O_7
REMARK    2  A    between atoms: C_2  and  O_8
REMARK    3  A    between atoms: C_3  and  O_9
REMARK    4  A    between atoms: C_4  and  O_10
REMARK    5  A    between atoms: C_5  and  C_6
REMARK    6  A    between atoms: C_6  and  O_12
REMARK                            x       y       z     vdW  Elec       q    Type
REMARK                         _______ _______ _______ _____ _____    ______ ____
ROOT
ATOM      1  C   UNL     1      -7.385  -8.955  -0.775  1.00  0.00    +0.000 C 
ATOM      2  C   UNL     1      -8.251 -10.006  -0.077  1.00  0.00    +0.000 C 
ATOM      3  C   UNL     1      -8.882  -9.389   1.174  1.00  0.00    +0.000 C 
ATOM      4  C   UNL     1      -7.770  -8.855   2.083  1.00  0.00    +0.000 C 
ATOM      5  C   UNL     1      -6.922  -7.847   1.301  1.00  0.00    +0.000 C 
ATOM      6  O   UNL     1      -6.391  -8.478   0.135  1.00  0.00    +0.000 OA
ENDROOT
BRANCH   1   7
ATOM      7  O   UNL     1      -6.748  -9.541  -1.914  1.00  0.00    +0.000 OA
ATOM      8  H   UNL     1      -5.824  -9.281  -2.023  1.00  0.00    +0.000 HD
ENDBRANCH   1   7
BRANCH   2   9
ATOM      9  O   UNL     1      -9.282 -10.443  -0.966  1.00  0.00    +0.000 OA
ATOM     10  H   UNL     1      -9.063 -11.246  -1.457  1.00  0.00    +0.000 HD
ENDBRANCH   2   9
BRANCH   3  11
ATOM     11  O   UNL     1      -9.745  -8.315   0.794  1.00  0.00    +0.000 OA
ATOM     12  H   UNL     1     -10.682  -8.552   0.772  1.00  0.00    +0.000 HD
ENDBRANCH   3  11
BRANCH   4  13
ATOM     13  O   UNL     1      -8.349  -8.211   3.219  1.00  0.00    +0.000 OA
ATOM     14  H   UNL     1      -8.252  -7.249   3.217  1.00  0.00    +0.000 HD
ENDBRANCH   4  13
BRANCH   5  15
ATOM     15  C   UNL     1      -5.774  -7.355   2.183  1.00  0.00    +0.000 C 
BRANCH  15  16
ATOM     16  O   UNL     1      -5.350  -8.412   3.047  1.00  0.00    +0.000 OA
ATOM     17  H   UNL     1      -6.037  -8.727   3.649  1.00  0.00    +0.000 HD
ENDBRANCH  15  16
ENDBRANCH   5  15
TORSDOF 6
ENDMDL
