MODEL 1
REMARK VINA RESULT:    -5.630      0.000      0.000
REMARK INTER + INTRA:          -6.827
REMARK INTER:                  -6.782
REMARK INTRA:                  -0.045
REMARK UNBOUND:                -0.045
REMARK  Name = BGC
REMARK  6 active torsions:
REMARK  status: ('A' for Active; 'I' for Inactive)
REMARK    1  A    between atoms: C_1  and  O_8
REMARK    2  A    between atoms: C_2  and  O_9
REMARK    3  A    between atoms: C_3  and  O_10
REMARK    4  A    between atoms: C_4  and  C_5
REMARK    5  A    between atoms: C_5  and  O_12
REMARK    6  A    between atoms: C_6  and  O_7
REMARK                            x       y       z     vdW  Elec       q    Type
REMARK                         _______ _______ _______ _____ _____    ______ ____
ROOT
ATOM      1  C   UNL     1       2.701  -1.931   1.852  1.00  0.00    +0.000 C 
ATOM      2  C   UNL     1       4.068  -1.248   1.953  1.00  0.00    +0.000 C 
ATOM      3  C   UNL     1       5.085  -2.042   1.128  1.00  0.00    +0.000 C 
ATOM      4  C   UNL     1       4.591  -2.143  -0.318  1.00  0.00    +0.000 C 
ATOM      5  C   UNL     1       2.298  -2.034   0.378  1.00  0.00    +0.000 C 
ATOM      6  O   UNL     1       3.302  -2.758  -0.338  1.00  0.00    +0.000 OA
ENDROOT
BRANCH   5   7
ATOM      7  O   UNL     1       1.049  -2.719   0.272  1.00  0.00    +0.000 OA
ATOM      8  H   UNL     1       0.827  -3.254   1.047  1.00  0.00    +0.000 HD
ENDBRANCH   5   7
BRANCH   1   9
ATOM      9  O   UNL     1       1.728  -1.158   2.559  1.00  0.00    +0.000 OA
ATOM     10  H   UNL     1       1.157  -0.627   1.987  1.00  0.00    +0.000 HD
ENDBRANCH   1   9
BRANCH   2  11
ATOM     11  O   UNL     1       4.486  -1.213   3.319  1.00  0.00    +0.000 OA
ATOM     12  H   UNL     1       4.333  -2.039   3.798  1.00  0.00    +0.000 HD
ENDBRANCH   2  11
BRANCH   3  13
ATOM     13  O   UNL     1       6.348  -1.376   1.155  1.00  0.00    +0.000 OA
ATOM     14  H   UNL     1       6.816  -1.385   0.309  1.00  0.00    +0.000 HD
ENDBRANCH   3  13
BRANCH   4  15
ATOM     15  C   UNL     1       5.571  -2.986  -1.136  1.00  0.00    +0.000 C 
BRANCH  15  16
ATOM     16  O   UNL     1       4.851  -3.989  -1.855  1.00  0.00    +0.000 OA
ATOM     17  H   UNL     1       5.243  -4.218  -2.709  1.00  0.00    +0.000 HD
ENDBRANCH  15  16
ENDBRANCH   4  15
TORSDOF 6
ENDMDL
MODEL 2
REMARK VINA RESULT:    -5.489      0.984      2.792
REMARK INTER + INTRA:          -6.657
REMARK INTER:                  -6.416
REMARK INTRA:                  -0.242
REMARK UNBOUND:                -0.045
REMARK  Name = BGC
REMARK  6 active torsions:
REMARK  status: ('A' for Active; 'I' for Inactive)
REMARK    1  A    between atoms: C_1  and  O_8
REMARK    2  A    between atoms: C_2  and  O_9
REMARK    3  A    between atoms: C_3  and  O_10
REMARK    4  A    between atoms: C_4  and  C_5
REMARK    5  A    between atoms: C_5  and  O_12
REMARK    6  A    between atoms: C_6  and  O_7
REMARK                            x       y       z     vdW  Elec       q    Type
REMARK                         _______ _______ _______ _____ _____    ______ ____
ROOT
ATOM      1  C   UNL     1       2.892  -1.091   2.029  1.00  0.00    +0.000 C 
ATOM      2  C   UNL     1       2.296  -1.745   0.778  1.00  0.00    +0.000 C 
ATOM      3  C   UNL     1       3.376  -1.824  -0.306  1.00  0.00    +0.000 C 
ATOM      4  C   UNL     1       4.579  -2.598   0.238  1.00  0.00    +0.000 C 
ATOM      5  C   UNL     1       4.113  -1.895   2.483  1.00  0.00    +0.000 C 
ATOM      6  O   UNL     1       5.064  -1.955   1.417  1.00  0.00    +0.000 OA
ENDROOT
BRANCH   5   7
ATOM      7  O   UNL     1       4.707  -1.259   3.616  1.00  0.00    +0.000 OA
ATOM      8  H   UNL     1       5.416  -1.771   4.029  1.00  0.00    +0.000 HD
ENDBRANCH   5   7
BRANCH   1   9
ATOM      9  O   UNL     1       1.915  -1.078   3.072  1.00  0.00    +0.000 OA
ATOM     10  H   UNL     1       2.271  -0.852   3.942  1.00  0.00    +0.000 HD
ENDBRANCH   1   9
BRANCH   2  11
ATOM     11  O   UNL     1       1.200  -0.961   0.304  1.00  0.00    +0.000 OA
ATOM     12  H   UNL     1       1.464  -0.198  -0.229  1.00  0.00    +0.000 HD
ENDBRANCH   2  11
BRANCH   3  13
ATOM     13  O   UNL     1       2.853  -2.497  -1.453  1.00  0.00    +0.000 OA
ATOM     14  H   UNL     1       2.268  -1.952  -1.996  1.00  0.00    +0.000 HD
ENDBRANCH   3  13
BRANCH   4  15
ATOM     15  C   UNL     1       5.686  -2.630  -0.818  1.00  0.00    +0.000 C 
BRANCH  15  16
ATOM     16  O   UNL     1       5.430  -3.688  -1.744  1.00  0.00    +0.000 OA
ATOM     17  H   UNL     1       4.497  -3.934  -1.811  1.00  0.00    +0.000 HD
ENDBRANCH  15  16
ENDBRANCH   4  15
TORSDOF 6
ENDMDL
MODEL 3
REMARK VINA RESULT:    -5.011      1.031      3.970
REMARK INTER + INTRA:          -6.082
REMARK INTER:                  -5.872
REMARK INTRA:                  -0.209
REMARK UNBOUND:                -0.045
REMARK  Name = BGC
REMARK  6 active torsions:
REMARK  status: ('A' for Active; 'I' for Inactive)
REMARK    1  A    between atoms: C_1  and  O_8
REMARK    2  A    between atoms: C_2  and  O_9
REMARK    3  A    between atoms: C_3  and  O_10
REMARK    4  A    between atoms: C_4  and  C_5
REMARK    5  A    between atoms: C_5  and  O_12
REMARK    6  A    between atoms: C_6  and  O_7
REMARK                            x       y       z     vdW  Elec       q    Type
REMARK                         _______ _______ _______ _____ _____    ______ ____
ROOT
ATOM      1  C   UNL     1       5.333  -2.047   1.245  1.00  0.00    +0.000 C 
ATOM      2  C   UNL     1       4.689  -1.910  -0.137  1.00  0.00    +0.000 C 
ATOM      3  C   UNL     1       3.216  -2.321  -0.045  1.00  0.00    +0.000 C 
ATOM      4  C   UNL     1       2.518  -1.458   1.010  1.00  0.00    +0.000 C 
ATOM      5  C   UNL     1       4.554  -1.193   2.250  1.00  0.00    +0.000 C 
ATOM      6  O   UNL     1       3.186  -1.608   2.264  1.00  0.00    +0.000 OA
ENDROOT
BRANCH   5   7
ATOM      7  O   UNL     1       5.115  -1.360   3.553  1.00  0.00    +0.000 OA
ATOM      8  H   UNL     1       5.276  -2.281   3.797  1.00  0.00    +0.000 HD
ENDBRANCH   5   7
BRANCH   1   9
ATOM      9  O   UNL     1       6.688  -1.597   1.187  1.00  0.00    +0.000 OA
ATOM     10  H   UNL     1       7.008  -1.427   0.291  1.00  0.00    +0.000 HD
ENDBRANCH   1   9
BRANCH   2  11
ATOM     11  O   UNL     1       5.364  -2.759  -1.067  1.00  0.00    +0.000 OA
ATOM     12  H   UNL     1       6.265  -2.476  -1.275  1.00  0.00    +0.000 HD
ENDBRANCH   2  11
BRANCH   3  13
ATOM     13  O   UNL     1       2.585  -2.128  -1.313  1.00  0.00    +0.000 OA
ATOM     14  H   UNL     1       1.921  -1.425  -1.319  1.00  0.00    +0.000 HD
ENDBRANCH   3  13
BRANCH   4  15
ATOM     15  C   UNL     1       1.061  -1.903   1.151  1.00  0.00    +0.000 C 
BRANCH  15  16
ATOM     16  O   UNL     1       0.884  -3.164   0.504  1.00  0.00    +0.000 OA
ATOM     17  H   UNL     1      -0.032  -3.358   0.262  1.00  0.00    +0.000 HD
ENDBRANCH  15  16
ENDBRANCH   4  15
TORSDOF 6
ENDMDL
MODEL 4
REMARK VINA RESULT:    -4.883      1.356      4.491
REMARK INTER + INTRA:          -5.927
REMARK INTER:                  -5.882
REMARK INTRA:                  -0.046
REMARK UNBOUND:                -0.045
REMARK  Name = BGC
REMARK  6 active torsions:
REMARK  status: ('A' for Active; 'I' for Inactive)
REMARK    1  A    between atoms: C_1  and  O_8
REMARK    2  A    between atoms: C_2  and  O_9
REMARK    3  A    between atoms: C_3  and  O_10
REMARK    4  A    between atoms: C_4  and  C_5
REMARK    5  A    between atoms: C_5  and  O_12
REMARK    6  A    between atoms: C_6  and  O_7
REMARK                            x       y       z     vdW  Elec       q    Type
REMARK                         _______ _______ _______ _____ _____    ______ ____
ROOT
ATOM      1  C   UNL     1       4.776  -2.084   0.623  1.00  0.00    +0.000 C 
ATOM      2  C   UNL     1       3.385  -1.973  -0.008  1.00  0.00    +0.000 C 
ATOM      3  C   UNL     1       2.365  -2.654   0.911  1.00  0.00    +0.000 C 
ATOM      4  C   UNL     1       2.428  -2.008   2.297  1.00  0.00    +0.000 C 
ATOM      5  C   UNL     1       4.746  -1.459   2.020  1.00  0.00    +0.000 C 
ATOM      6  O   UNL     1       3.755  -2.118   2.813  1.00  0.00    +0.000 OA
ENDROOT
BRANCH   5   7
ATOM      7  O   UNL     1       6.026  -1.608   2.636  1.00  0.00    +0.000 OA
ATOM      8  H   UNL     1       6.711  -1.948   2.044  1.00  0.00    +0.000 HD
ENDBRANCH   5   7
BRANCH   1   9
ATOM      9  O   UNL     1       5.725  -1.389  -0.190  1.00  0.00    +0.000 OA
ATOM     10  H   UNL     1       6.511  -1.908  -0.408  1.00  0.00    +0.000 HD
ENDBRANCH   1   9
BRANCH   2  11
ATOM     11  O   UNL     1       3.384  -2.618  -1.283  1.00  0.00    +0.000 OA
ATOM     12  H   UNL     1       4.257  -2.674  -1.695  1.00  0.00    +0.000 HD
ENDBRANCH   2  11
BRANCH   3  13
ATOM     13  O   UNL     1       1.052  -2.494   0.369  1.00  0.00    +0.000 OA
ATOM     14  H   UNL     1       0.844  -1.588   0.103  1.00  0.00    +0.000 HD
ENDBRANCH   3  13
BRANCH   4  15
ATOM     15  C   UNL     1       1.455  -2.722   3.238  1.00  0.00    +0.000 C 
BRANCH  15  16
ATOM     16  O   UNL     1       2.163  -3.198   4.384  1.00  0.00    +0.000 OA
ATOM     17  H   UNL     1       1.954  -2.723   5.200  1.00  0.00    +0.000 HD
ENDBRANCH  15  16
ENDBRANCH   4  15
TORSDOF 6
ENDMDL
MODEL 5
REMARK VINA RESULT:    -4.827      1.264      3.654
REMARK INTER + INTRA:          -5.860
REMARK INTER:                  -5.635
REMARK INTRA:                  -0.225
REMARK UNBOUND:                -0.045
REMARK  Name = BGC
REMARK  6 active torsions:
REMARK  status: ('A' for Active; 'I' for Inactive)
REMARK    1  A    between atoms: C_1  and  O_8
REMARK    2  A    between atoms: C_2  and  O_9
REMARK    3  A    between atoms: C_3  and  O_10
REMARK    4  A    between atoms: C_4  and  C_5
REMARK    5  A    between atoms: C_5  and  O_12
REMARK    6  A    between atoms: C_6  and  O_7
REMARK                            x       y       z     vdW  Elec       q    Type
REMARK                         _______ _______ _______ _____ _____    ______ ____
ROOT
ATOM      1  C   UNL     1       4.358  -1.733  -0.144  1.00  0.00    +0.000 C 
ATOM      2  C   UNL     1       4.923  -2.090   1.233  1.00  0.00    +0.000 C 
ATOM      3  C   UNL     1       3.945  -1.617   2.313  1.00  0.00    +0.000 C 
ATOM      4  C   UNL     1       2.575  -2.253   2.064  1.00  0.00    +0.000 C 
ATOM      5  C   UNL     1       2.972  -2.366  -0.299  1.00  0.00    +0.000 C 
ATOM      6  O   UNL     1       2.121  -1.907   0.754  1.00  0.00    +0.000 OA
ENDROOT
BRANCH   5   7
ATOM      7  O   UNL     1       2.415  -1.991  -1.560  1.00  0.00    +0.000 OA
ATOM      8  H   UNL     1       3.072  -1.731  -2.219  1.00  0.00    +0.000 HD
ENDBRANCH   5   7
BRANCH   1   9
ATOM      9  O   UNL     1       5.227  -2.234  -1.162  1.00  0.00    +0.000 OA
ATOM     10  H   UNL     1       5.063  -1.860  -2.039  1.00  0.00    +0.000 HD
ENDBRANCH   1   9
BRANCH   2  11
ATOM     11  O   UNL     1       6.185  -1.444   1.415  1.00  0.00    +0.000 OA
ATOM     12  H   UNL     1       6.946  -2.004   1.211  1.00  0.00    +0.000 HD
ENDBRANCH   2  11
BRANCH   3  13
ATOM     13  O   UNL     1       4.427  -2.009   3.600  1.00  0.00    +0.000 OA
ATOM     14  H   UNL     1       4.406  -2.963   3.753  1.00  0.00    +0.000 HD
ENDBRANCH   3  13
BRANCH   4  15
ATOM     15  C   UNL     1       1.576  -1.739   3.103  1.00  0.00    +0.000 C 
BRANCH  15  16
ATOM     16  O   UNL     1       1.460  -2.690   4.162  1.00  0.00    +0.000 OA
ATOM     17  H   UNL     1       0.810  -2.449   4.837  1.00  0.00    +0.000 HD
ENDBRANCH  15  16
ENDBRANCH   4  15
TORSDOF 6
ENDMDL
MODEL 6
REMARK VINA RESULT:    -4.822      1.229      4.121
REMARK INTER + INTRA:          -5.853
REMARK INTER:                  -5.819
REMARK INTRA:                  -0.034
REMARK UNBOUND:                -0.045
REMARK  Name = BGC
REMARK  6 active torsions:
REMARK  status: ('A' for Active; 'I' for Inactive)
REMARK    1  A    between atoms: C_1  and  O_8
REMARK    2  A    between atoms: C_2  and  O_9
REMARK    3  A    between atoms: C_3  and  O_10
REMARK    4  A    between atoms: C_4  and  C_5
REMARK    5  A    between atoms: C_5  and  O_12
REMARK    6  A    between atoms: C_6  and  O_7
REMARK                            x       y       z     vdW  Elec       q    Type
REMARK                         _______ _______ _______ _____ _____    ______ ____
ROOT
ATOM      1  C   UNL     1       3.416  -2.628  -0.115  1.00  0.00    +0.000 C 
ATOM      2  C   UNL     1       2.296  -2.065   0.765  1.00  0.00    +0.000 C 
ATOM      3  C   UNL     1       2.691  -2.222   2.237  1.00  0.00    +0.000 C 
ATOM      4  C   UNL     1       4.028  -1.516   2.476  1.00  0.00    +0.000 C 
ATOM      5  C   UNL     1       4.726  -1.906   0.215  1.00  0.00    +0.000 C 
ATOM      6  O   UNL     1       5.018  -2.066   1.605  1.00  0.00    +0.000 OA
ENDROOT
BRANCH   5   7
ATOM      7  O   UNL     1       5.786  -2.464  -0.562  1.00  0.00    +0.000 OA
ATOM      8  H   UNL     1       5.504  -2.820  -1.416  1.00  0.00    +0.000 HD
ENDBRANCH   5   7
BRANCH   1   9
ATOM      9  O   UNL     1       3.092  -2.422  -1.491  1.00  0.00    +0.000 OA
ATOM     10  H   UNL     1       2.808  -1.521  -1.697  1.00  0.00    +0.000 HD
ENDBRANCH   1   9
BRANCH   2  11
ATOM     11  O   UNL     1       1.086  -2.783   0.517  1.00  0.00    +0.000 OA
ATOM     12  H   UNL     1       1.018  -3.141  -0.379  1.00  0.00    +0.000 HD
ENDBRANCH   2  11
BRANCH   3  13
ATOM     13  O   UNL     1       1.686  -1.635   3.066  1.00  0.00    +0.000 OA
ATOM     14  H   UNL     1       1.434  -2.180   3.824  1.00  0.00    +0.000 HD
ENDBRANCH   3  13
BRANCH   4  15
ATOM     15  C   UNL     1       4.459  -1.719   3.931  1.00  0.00    +0.000 C 
BRANCH  15  16
ATOM     16  O   UNL     1       5.657  -0.981   4.179  1.00  0.00    +0.000 OA
ATOM     17  H   UNL     1       5.600  -0.046   3.938  1.00  0.00    +0.000 HD
ENDBRANCH  15  16
ENDBRANCH   4  15
TORSDOF 6
ENDMDL
MODEL 7
REMARK VINA RESULT:    -4.667     12.072     14.011
REMARK INTER + INTRA:          -5.667
REMARK INTER:                  -5.456
REMARK INTRA:                  -0.211
REMARK UNBOUND:                -0.045
REMARK  Name = BGC
REMARK  6 active torsions:
REMARK  status: ('A' for Active; 'I' for Inactive)
REMARK    1  A    between atoms: C_1  and  O_8
REMARK    2  A    between atoms: C_2  and  O_9
REMARK    3  A    between atoms: C_3  and  O_10
REMARK    4  A    between atoms: C_4  and  C_5
REMARK    5  A    between atoms: C_5  and  O_12
REMARK    6  A    between atoms: C_6  and  O_7
REMARK                            x       y       z     vdW  Elec       q    Type
REMARK                         _______ _______ _______ _____ _____    ______ ____
ROOT
ATOM      1  C   UNL     1      -7.635  -8.577   2.290  1.00  0.00    +0.000 C 
ATOM      2  C   UNL     1      -7.078  -8.076   0.954  1.00  0.00    +0.000 C 
ATOM      3  C   UNL     1      -7.557  -9.005  -0.166  1.00  0.00    +0.000 C 
ATOM      4  C   UNL     1      -9.087  -9.058  -0.156  1.00  0.00    +0.000 C 
ATOM      5  C   UNL     1      -9.162  -8.645   2.205  1.00  0.00    +0.000 C 
ATOM      6  O   UNL     1      -9.539  -9.501   1.124  1.00  0.00    +0.000 OA
ENDROOT
BRANCH   5   7
ATOM      7  O   UNL     1      -9.685  -9.164   3.429  1.00  0.00    +0.000 OA
ATOM      8  H   UNL     1     -10.567  -9.551   3.347  1.00  0.00    +0.000 HD
ENDBRANCH   5   7
BRANCH   1   9
ATOM      9  O   UNL     1      -7.255  -7.676   3.333  1.00  0.00    +0.000 OA
ATOM     10  H   UNL     1      -7.396  -6.744   3.119  1.00  0.00    +0.000 HD
ENDBRANCH   1   9
BRANCH   2  11
ATOM     11  O   UNL     1      -5.650  -8.078   0.999  1.00  0.00    +0.000 OA
ATOM     12  H   UNL     1      -5.256  -7.195   0.993  1.00  0.00    +0.000 HD
ENDBRANCH   2  11
BRANCH   3  13
ATOM     13  O   UNL     1      -7.104  -8.507  -1.426  1.00  0.00    +0.000 OA
ATOM     14  H   UNL     1      -6.274  -8.900  -1.729  1.00  0.00    +0.000 HD
ENDBRANCH   3  13
BRANCH   4  15
ATOM     15  C   UNL     1      -9.571 -10.031  -1.234  1.00  0.00    +0.000 C 
BRANCH  15  16
ATOM     16  O   UNL     1      -9.418  -9.430  -2.521  1.00  0.00    +0.000 OA
ATOM     17  H   UNL     1      -8.689  -8.796  -2.575  1.00  0.00    +0.000 HD
ENDBRANCH  15  16
ENDBRANCH   4  15
TORSDOF 6
ENDMDL
MODEL 8
REMARK VINA RESULT:    -4.638     12.402     14.331
REMARK INTER + INTRA:          -5.632
REMARK INTER:                  -5.385
REMARK INTRA:                  -0.247
REMARK UNBOUND:                -0.045
REMARK  Name = BGC
REMARK  6 active torsions:
REMARK  status: ('A' for Active; 'I' for Inactive)
REMARK    1  A    between atoms: C_1  and  O_8
REMARK    2  A    between atoms: C_2  and  O_9
REMARK    3  A    between atoms: C_3  and  O_10
REMARK    4  A    between atoms: C_4  and  C_5
REMARK    5  A    between atoms: C_5  and  O_12
REMARK    6  A    between atoms: C_6  and  O_7
REMARK                            x       y       z     vdW  Elec       q    Type
REMARK                         _______ _______ _______ _____ _____    ______ ____
ROOT
ATOM      1  C   UNL     1      -8.386 -10.864  -0.717  1.00  0.00    +0.000 C 
ATOM      2  C   UNL     1      -7.129 -10.000  -0.860  1.00  0.00    +0.000 C 
ATOM      3  C   UNL     1      -7.241  -8.797   0.082  1.00  0.00    +0.000 C 
ATOM      4  C   UNL     1      -7.445  -9.296   1.515  1.00  0.00    +0.000 C 
ATOM      5  C   UNL     1      -8.544 -11.285   0.746  1.00  0.00    +0.000 C 
ATOM      6  O   UNL     1      -8.611 -10.118   1.570  1.00  0.00    +0.000 OA
ENDROOT
BRANCH   5   7
ATOM      7  O   UNL     1      -9.745 -12.044   0.897  1.00  0.00    +0.000 OA
ATOM      8  H   UNL     1     -10.179 -11.929   1.753  1.00  0.00    +0.000 HD
ENDBRANCH   5   7
BRANCH   1   9
ATOM      9  O   UNL     1      -8.261 -12.028  -1.537  1.00  0.00    +0.000 OA
ATOM     10  H   UNL     1      -8.734 -12.800  -1.199  1.00  0.00    +0.000 HD
ENDBRANCH   1   9
BRANCH   2  11
ATOM     11  O   UNL     1      -7.013  -9.542  -2.208  1.00  0.00    +0.000 OA
ATOM     12  H   UNL     1      -6.281  -9.942  -2.697  1.00  0.00    +0.000 HD
ENDBRANCH   2  11
BRANCH   3  13
ATOM     13  O   UNL     1      -6.043  -8.022   0.012  1.00  0.00    +0.000 OA
ATOM     14  H   UNL     1      -6.133  -7.126   0.365  1.00  0.00    +0.000 HD
ENDBRANCH   3  13
BRANCH   4  15
ATOM     15  C   UNL     1      -7.618  -8.100   2.453  1.00  0.00    +0.000 C 
BRANCH  15  16
ATOM     16  O   UNL     1      -6.336  -7.668   2.915  1.00  0.00    +0.000 OA
ATOM     17  H   UNL     1      -5.818  -8.364   3.342  1.00  0.00    +0.000 HD
ENDBRANCH  15  16
ENDBRANCH   4  15
TORSDOF 6
ENDMDL
MODEL 9
REMARK VINA RESULT:    -4.546     12.017     14.188
REMARK INTER + INTRA:          -5.522
REMARK INTER:                  -5.488
REMARK INTRA:                  -0.034
REMARK UNBOUND:                -0.045
REMARK  Name = BGC
REMARK  6 active torsions:
REMARK  status: ('A' for Active; 'I' for Inactive)
REMARK    1  A    between atoms: C_1  and  O_8
REMARK    2  A    between atoms: C_2  and  O_9
REMARK    3  A    between atoms: C_3  and  O_10
REMARK    4  A    between atoms: C_4  and  C_5
REMARK    5  A    between atoms: C_5  and  O_12
REMARK    6  A    between atoms: C_6  and  O_7
REMARK                            x       y       z     vdW  Elec       q    Type
REMARK                         _______ _______ _______ _____ _____    ______ ____
ROOT
ATOM      1  C   UNL     1      -8.414 -10.431  -0.511  1.00  0.00    +0.000 C 
ATOM      2  C   UNL     1      -9.152 -10.006   0.762  1.00  0.00    +0.000 C 
ATOM      3  C   UNL     1      -8.150  -9.368   1.730  1.00  0.00    +0.000 C 
ATOM      4  C   UNL     1      -7.463  -8.189   1.036  1.00  0.00    +0.000 C 
ATOM      5  C   UNL     1      -7.717  -9.210  -1.119  1.00  0.00    +0.000 C 
ATOM      6  O   UNL     1      -6.823  -8.646  -0.156  1.00  0.00    +0.000 OA
ENDROOT
BRANCH   5   7
ATOM      7  O   UNL     1      -6.982  -9.609  -2.277  1.00  0.00    +0.000 OA
ATOM      8  H   UNL     1      -6.436 -10.395  -2.144  1.00  0.00    +0.000 HD
ENDBRANCH   5   7
BRANCH   1   9
ATOM      9  O   UNL     1      -9.351 -10.961  -1.451  1.00  0.00    +0.000 OA
ATOM     10  H   UNL     1      -9.462 -10.420  -2.245  1.00  0.00    +0.000 HD
ENDBRANCH   1   9
BRANCH   2  11
ATOM     11  O   UNL     1      -9.745 -11.152   1.376  1.00  0.00    +0.000 OA
ATOM     12  H   UNL     1      -9.154 -11.916   1.436  1.00  0.00    +0.000 HD
ENDBRANCH   2  11
BRANCH   3  13
ATOM     13  O   UNL     1      -8.839  -8.903   2.892  1.00  0.00    +0.000 OA
ATOM     14  H   UNL     1      -8.255  -8.657   3.623  1.00  0.00    +0.000 HD
ENDBRANCH   3  13
BRANCH   4  15
ATOM     15  C   UNL     1      -6.417  -7.583   1.976  1.00  0.00    +0.000 C 
BRANCH  15  16
ATOM     16  O   UNL     1      -5.987  -6.323   1.458  1.00  0.00    +0.000 OA
ATOM     17  H   UNL     1      -5.589  -5.741   2.120  1.00  0.00    +0.000 HD
ENDBRANCH  15  16
ENDBRANCH   4  15
TORSDOF 6
ENDMDL
