MODEL 1
REMARK VINA RESULT:    -5.747      0.000      0.000
REMARK INTER + INTRA:          -6.419
REMARK INTER:                  -6.419
REMARK INTRA:                   0.000
REMARK UNBOUND:                 0.000
REMARK  Name = PAV
REMARK  5 active torsions:
REMARK  status: ('A' for Active; 'I' for Inactive)
REMARK    1  A    between atoms: O_1  and  C_2
REMARK    2  A    between atoms: C_2  and  C_3
REMARK    3  A    between atoms: C_6  and  O_7
REMARK    4  A    between atoms: C_8  and  O_9
REMARK    5  A    between atoms: C_8  and  O_10
REMARK                            x       y       z     vdW  Elec       q    Type
REMARK                         _______ _______ _______ _____ _____    ______ ____
ROOT
ATOM      1  C   UNL     1       3.186  -1.975   2.082  1.00  0.00    +0.000 C 
ATOM      2  C   UNL     1       2.360  -2.966   2.903  1.00  0.00    +0.000 C 
ATOM      3  O   UNL     1       4.582  -2.134   2.384  1.00  0.00    +0.000 OA
ATOM      4  C   UNL     1       5.311  -1.868   1.168  1.00  0.00    +0.000 C 
ATOM      5  C   UNL     1       4.444  -2.542   0.074  1.00  0.00    +0.000 C 
ATOM      6  C   UNL     1       3.005  -2.259   0.579  1.00  0.00    +0.000 C 
ENDROOT
BRANCH   1   7
ATOM      7  O   UNL     1       2.774  -0.639   2.376  1.00  0.00    +0.000 OA
ATOM      8  H   UNL     1       2.645  -0.591   3.334  1.00  0.00    +0.000 HD
ENDBRANCH   1   7
BRANCH   5   9
ATOM      9  O   UNL     1       4.666  -1.932  -1.200  1.00  0.00    +0.000 OA
ATOM     10  H   UNL     1       4.520  -2.616  -1.866  1.00  0.00    +0.000 HD
ENDBRANCH   5   9
BRANCH   6  11
ATOM     11  O   UNL     1       2.173  -3.404   0.385  1.00  0.00    +0.000 OA
ATOM     12  H   UNL     1       2.639  -4.158   0.773  1.00  0.00    +0.000 HD
ENDBRANCH   6  11
BRANCH   6  13
ATOM     13  O   UNL     1       2.456  -1.121  -0.087  1.00  0.00    +0.000 OA
ATOM     14  H   UNL     1       1.516  -1.305  -0.225  1.00  0.00    +0.000 HD
ENDBRANCH   6  13
TORSDOF 4
ENDMDL
MODEL 2
REMARK VINA RESULT:    -5.350      1.141      3.320
REMARK INTER + INTRA:          -5.976
REMARK INTER:                  -5.976
REMARK INTRA:                   0.000
REMARK UNBOUND:                 0.000
REMARK  Name = PAV
REMARK  5 active torsions:
REMARK  status: ('A' for Active; 'I' for Inactive)
REMARK    1  A    between atoms: O_1  and  C_2
REMARK    2  A    between atoms: C_2  and  C_3
REMARK    3  A    between atoms: C_6  and  O_7
REMARK    4  A    between atoms: C_8  and  O_9
REMARK    5  A    between atoms: C_8  and  O_10
REMARK                            x       y       z     vdW  Elec       q    Type
REMARK                         _______ _______ _______ _____ _____    ______ ____
ROOT
ATOM      1  C   UNL     1       3.798  -1.888   0.349  1.00  0.00    +0.000 C 
ATOM      2  C   UNL     1       5.236  -1.934  -0.169  1.00  0.00    +0.000 C 
ATOM      3  O   UNL     1       3.129  -3.122   0.043  1.00  0.00    +0.000 OA
ATOM      4  C   UNL     1       2.214  -3.387   1.127  1.00  0.00    +0.000 C 
ATOM      5  C   UNL     1       3.018  -2.973   2.386  1.00  0.00    +0.000 C 
ATOM      6  C   UNL     1       3.796  -1.730   1.880  1.00  0.00    +0.000 C 
ENDROOT
BRANCH   1   7
ATOM      7  O   UNL     1       3.100  -0.795  -0.253  1.00  0.00    +0.000 OA
ATOM      8  H   UNL     1       2.440  -0.498   0.389  1.00  0.00    +0.000 HD
ENDBRANCH   1   7
BRANCH   5   9
ATOM      9  O   UNL     1       2.141  -2.624   3.459  1.00  0.00    +0.000 OA
ATOM     10  H   UNL     1       1.405  -3.248   3.433  1.00  0.00    +0.000 HD
ENDBRANCH   5   9
BRANCH   6  11
ATOM     11  O   UNL     1       5.133  -1.738   2.384  1.00  0.00    +0.000 OA
ATOM     12  H   UNL     1       5.721  -1.766   1.616  1.00  0.00    +0.000 HD
ENDBRANCH   6  11
BRANCH   6  13
ATOM     13  O   UNL     1       3.123  -0.530   2.263  1.00  0.00    +0.000 OA
ATOM     14  H   UNL     1       2.420  -0.787   2.876  1.00  0.00    +0.000 HD
ENDBRANCH   6  13
TORSDOF 4
ENDMDL
MODEL 3
REMARK VINA RESULT:    -5.288      1.282      1.780
REMARK INTER + INTRA:          -5.906
REMARK INTER:                  -5.906
REMARK INTRA:                   0.000
REMARK UNBOUND:                 0.000
REMARK  Name = PAV
REMARK  5 active torsions:
REMARK  status: ('A' for Active; 'I' for Inactive)
REMARK    1  A    between atoms: O_1  and  C_2
REMARK    2  A    between atoms: C_2  and  C_3
REMARK    3  A    between atoms: C_6  and  O_7
REMARK    4  A    between atoms: C_8  and  O_9
REMARK    5  A    between atoms: C_8  and  O_10
REMARK                            x       y       z     vdW  Elec       q    Type
REMARK                         _______ _______ _______ _____ _____    ______ ____
ROOT
ATOM      1  C   UNL     1       2.986  -2.441   0.945  1.00  0.00    +0.000 C 
ATOM      2  C   UNL     1       2.435  -3.867   0.896  1.00  0.00    +0.000 C 
ATOM      3  O   UNL     1       3.499  -2.160   2.258  1.00  0.00    +0.000 OA
ATOM      4  C   UNL     1       4.633  -1.285   2.089  1.00  0.00    +0.000 C 
ATOM      5  C   UNL     1       5.348  -1.859   0.840  1.00  0.00    +0.000 C 
ATOM      6  C   UNL     1       4.153  -2.294  -0.047  1.00  0.00    +0.000 C 
ENDROOT
BRANCH   1   7
ATOM      7  O   UNL     1       1.951  -1.510   0.619  1.00  0.00    +0.000 OA
ATOM      8  H   UNL     1       1.651  -1.122   1.453  1.00  0.00    +0.000 HD
ENDBRANCH   1   7
BRANCH   5   9
ATOM      9  O   UNL     1       6.125  -0.851   0.189  1.00  0.00    +0.000 OA
ATOM     10  H   UNL     1       5.672  -0.638  -0.637  1.00  0.00    +0.000 HD
ENDBRANCH   5   9
BRANCH   6  11
ATOM     11  O   UNL     1       4.430  -3.546  -0.679  1.00  0.00    +0.000 OA
ATOM     12  H   UNL     1       3.640  -3.786  -1.183  1.00  0.00    +0.000 HD
ENDBRANCH   6  11
BRANCH   6  13
ATOM     13  O   UNL     1       3.863  -1.293  -1.024  1.00  0.00    +0.000 OA
ATOM     14  H   UNL     1       3.075  -0.824  -0.717  1.00  0.00    +0.000 HD
ENDBRANCH   6  13
TORSDOF 4
ENDMDL
MODEL 4
REMARK VINA RESULT:    -5.219      1.369      3.054
REMARK INTER + INTRA:          -5.829
REMARK INTER:                  -5.829
REMARK INTRA:                   0.000
REMARK UNBOUND:                 0.000
REMARK  Name = PAV
REMARK  5 active torsions:
REMARK  status: ('A' for Active; 'I' for Inactive)
REMARK    1  A    between atoms: O_1  and  C_2
REMARK    2  A    between atoms: C_2  and  C_3
REMARK    3  A    between atoms: C_6  and  O_7
REMARK    4  A    between atoms: C_8  and  O_9
REMARK    5  A    between atoms: C_8  and  O_10
REMARK                            x       y       z     vdW  Elec       q    Type
REMARK                         _______ _______ _______ _____ _____    ______ ____
ROOT
ATOM      1  C   UNL     1       3.936  -2.613   0.192  1.00  0.00    +0.000 C 
ATOM      2  C   UNL     1       4.641  -2.017  -1.028  1.00  0.00    +0.000 C 
ATOM      3  O   UNL     1       4.725  -2.386   1.371  1.00  0.00    +0.000 OA
ATOM      4  C   UNL     1       3.802  -2.190   2.464  1.00  0.00    +0.000 C 
ATOM      5  C   UNL     1       2.677  -1.330   1.835  1.00  0.00    +0.000 C 
ATOM      6  C   UNL     1       2.578  -1.920   0.404  1.00  0.00    +0.000 C 
ENDROOT
BRANCH   1   7
ATOM      7  O   UNL     1       3.740  -4.016   0.001  1.00  0.00    +0.000 OA
ATOM      8  H   UNL     1       3.425  -4.371   0.843  1.00  0.00    +0.000 HD
ENDBRANCH   1   7
BRANCH   5   9
ATOM      9  O   UNL     1       1.447  -1.502   2.543  1.00  0.00    +0.000 OA
ATOM     10  H   UNL     1       0.753  -1.110   1.998  1.00  0.00    +0.000 HD
ENDBRANCH   5   9
BRANCH   6  11
ATOM     11  O   UNL     1       2.396  -0.877  -0.555  1.00  0.00    +0.000 OA
ATOM     12  H   UNL     1       1.933  -0.157  -0.102  1.00  0.00    +0.000 HD
ENDBRANCH   6  11
BRANCH   6  13
ATOM     13  O   UNL     1       1.511  -2.865   0.325  1.00  0.00    +0.000 OA
ATOM     14  H   UNL     1       0.729  -2.437   0.701  1.00  0.00    +0.000 HD
ENDBRANCH   6  13
TORSDOF 4
ENDMDL
MODEL 5
REMARK VINA RESULT:    -4.993      1.410      2.265
REMARK INTER + INTRA:          -5.577
REMARK INTER:                  -5.577
REMARK INTRA:                   0.000
REMARK UNBOUND:                 0.000
REMARK  Name = PAV
REMARK  5 active torsions:
REMARK  status: ('A' for Active; 'I' for Inactive)
REMARK    1  A    between atoms: O_1  and  C_2
REMARK    2  A    between atoms: C_2  and  C_3
REMARK    3  A    between atoms: C_6  and  O_7
REMARK    4  A    between atoms: C_8  and  O_9
REMARK    5  A    between atoms: C_8  and  O_10
REMARK                            x       y       z     vdW  Elec       q    Type
REMARK                         _______ _______ _______ _____ _____    ______ ____
ROOT
ATOM      1  C   UNL     1       4.205  -1.501   2.308  1.00  0.00    +0.000 C 
ATOM      2  C   UNL     1       4.882  -1.694   3.666  1.00  0.00    +0.000 C 
ATOM      3  O   UNL     1       5.002  -2.102   1.275  1.00  0.00    +0.000 OA
ATOM      4  C   UNL     1       4.089  -2.617   0.283  1.00  0.00    +0.000 C 
ATOM      5  C   UNL     1       2.937  -3.215   1.131  1.00  0.00    +0.000 C 
ATOM      6  C   UNL     1       2.834  -2.202   2.300  1.00  0.00    +0.000 C 
ENDROOT
BRANCH   1   7
ATOM      7  O   UNL     1       4.039  -0.106   2.044  1.00  0.00    +0.000 OA
ATOM      8  H   UNL     1       3.789  -0.026   1.113  1.00  0.00    +0.000 HD
ENDBRANCH   1   7
BRANCH   5   9
ATOM      9  O   UNL     1       1.720  -3.252   0.381  1.00  0.00    +0.000 OA
ATOM     10  H   UNL     1       1.785  -4.005  -0.220  1.00  0.00    +0.000 HD
ENDBRANCH   5   9
BRANCH   6  11
ATOM     11  O   UNL     1       2.617  -2.886   3.536  1.00  0.00    +0.000 OA
ATOM     12  H   UNL     1       3.038  -2.356   4.227  1.00  0.00    +0.000 HD
ENDBRANCH   6  11
BRANCH   6  13
ATOM     13  O   UNL     1       1.787  -1.261   2.057  1.00  0.00    +0.000 OA
ATOM     14  H   UNL     1       1.855  -1.001   1.128  1.00  0.00    +0.000 HD
ENDBRANCH   6  13
TORSDOF 4
ENDMDL
MODEL 6
REMARK VINA RESULT:    -4.963      1.176      2.579
REMARK INTER + INTRA:          -5.543
REMARK INTER:                  -5.543
REMARK INTRA:                   0.000
REMARK UNBOUND:                 0.000
REMARK  Name = PAV
REMARK  5 active torsions:
REMARK  status: ('A' for Active; 'I' for Inactive)
REMARK    1  A    between atoms: O_1  and  C_2
REMARK    2  A    between atoms: C_2  and  C_3
REMARK    3  A    between atoms: C_6  and  O_7
REMARK    4  A    between atoms: C_8  and  O_9
REMARK    5  A    between atoms: C_8  and  O_10
REMARK                            x       y       z     vdW  Elec       q    Type
REMARK                         _______ _______ _______ _____ _____    ______ ____
ROOT
ATOM      1  C   UNL     1       2.626  -2.809   1.123  1.00  0.00    +0.000 C 
ATOM      2  C   UNL     1       2.502  -2.847   2.647  1.00  0.00    +0.000 C 
ATOM      3  O   UNL     1       1.722  -1.831   0.583  1.00  0.00    +0.000 OA
ATOM      4  C   UNL     1       2.364  -1.257  -0.574  1.00  0.00    +0.000 C 
ATOM      5  C   UNL     1       3.843  -1.112  -0.131  1.00  0.00    +0.000 C 
ATOM      6  C   UNL     1       4.052  -2.389   0.722  1.00  0.00    +0.000 C 
ENDROOT
BRANCH   1   7
ATOM      7  O   UNL     1       2.329  -4.097   0.580  1.00  0.00    +0.000 OA
ATOM      8  H   UNL     1       1.842  -4.582   1.261  1.00  0.00    +0.000 HD
ENDBRANCH   1   7
BRANCH   5   9
ATOM      9  O   UNL     1       4.715  -1.107  -1.264  1.00  0.00    +0.000 OA
ATOM     10  H   UNL     1       4.724  -0.204  -1.606  1.00  0.00    +0.000 HD
ENDBRANCH   5   9
BRANCH   6  11
ATOM     11  O   UNL     1       4.829  -2.092   1.884  1.00  0.00    +0.000 OA
ATOM     12  H   UNL     1       5.534  -1.492   1.603  1.00  0.00    +0.000 HD
ENDBRANCH   6  11
BRANCH   6  13
ATOM     13  O   UNL     1       4.680  -3.412  -0.053  1.00  0.00    +0.000 OA
ATOM     14  H   UNL     1       5.216  -2.965  -0.723  1.00  0.00    +0.000 HD
ENDBRANCH   6  13
TORSDOF 4
ENDMDL
MODEL 7
REMARK VINA RESULT:    -4.907      1.329      2.615
REMARK INTER + INTRA:          -5.480
REMARK INTER:                  -5.480
REMARK INTRA:                   0.000
REMARK UNBOUND:                 0.000
REMARK  Name = PAV
REMARK  5 active torsions:
REMARK  status: ('A' for Active; 'I' for Inactive)
REMARK    1  A    between atoms: O_1  and  C_2
REMARK    2  A    between atoms: C_2  and  C_3
REMARK    3  A    between atoms: C_6  and  O_7
REMARK    4  A    between atoms: C_8  and  O_9
REMARK    5  A    between atoms: C_8  and  O_10
REMARK                            x       y       z     vdW  Elec       q    Type
REMARK                         _______ _______ _______ _____ _____    ______ ____
ROOT
ATOM      1  C   UNL     1       2.502  -2.164   1.455  1.00  0.00    +0.000 C 
ATOM      2  C   UNL     1       1.349  -1.535   2.238  1.00  0.00    +0.000 C 
ATOM      3  O   UNL     1       2.228  -2.099   0.045  1.00  0.00    +0.000 OA
ATOM      4  C   UNL     1       3.493  -1.913  -0.622  1.00  0.00    +0.000 C 
ATOM      5  C   UNL     1       4.242  -0.913   0.296  1.00  0.00    +0.000 C 
ATOM      6  C   UNL     1       3.801  -1.377   1.708  1.00  0.00    +0.000 C 
ENDROOT
BRANCH   1   7
ATOM      7  O   UNL     1       2.673  -3.526   1.854  1.00  0.00    +0.000 OA
ATOM      8  H   UNL     1       3.624  -3.666   1.969  1.00  0.00    +0.000 HD
ENDBRANCH   1   7
BRANCH   5   9
ATOM      9  O   UNL     1       5.657  -1.037   0.137  1.00  0.00    +0.000 OA
ATOM     10  H   UNL     1       5.974  -0.195  -0.212  1.00  0.00    +0.000 HD
ENDBRANCH   5   9
BRANCH   6  11
ATOM     11  O   UNL     1       3.545  -0.249   2.547  1.00  0.00    +0.000 OA
ATOM     12  H   UNL     1       4.123   0.464   2.242  1.00  0.00    +0.000 HD
ENDBRANCH   6  11
BRANCH   6  13
ATOM     13  O   UNL     1       4.796  -2.220   2.291  1.00  0.00    +0.000 OA
ATOM     14  H   UNL     1       5.635  -1.999   1.864  1.00  0.00    +0.000 HD
ENDBRANCH   6  13
TORSDOF 4
ENDMDL
MODEL 8
REMARK VINA RESULT:    -4.903      1.216      2.973
REMARK INTER + INTRA:          -5.476
REMARK INTER:                  -5.476
REMARK INTRA:                   0.000
REMARK UNBOUND:                 0.000
REMARK  Name = PAV
REMARK  5 active torsions:
REMARK  status: ('A' for Active; 'I' for Inactive)
REMARK    1  A    between atoms: O_1  and  C_2
REMARK    2  A    between atoms: C_2  and  C_3
REMARK    3  A    between atoms: C_6  and  O_7
REMARK    4  A    between atoms: C_8  and  O_9
REMARK    5  A    between atoms: C_8  and  O_10
REMARK                            x       y       z     vdW  Elec       q    Type
REMARK                         _______ _______ _______ _____ _____    ______ ____
ROOT
ATOM      1  C   UNL     1       3.083  -2.320   0.463  1.00  0.00    +0.000 C 
ATOM      2  C   UNL     1       2.062  -1.605  -0.423  1.00  0.00    +0.000 C 
ATOM      3  O   UNL     1       4.412  -1.902   0.113  1.00  0.00    +0.000 OA
ATOM      4  C   UNL     1       5.187  -1.896   1.330  1.00  0.00    +0.000 C 
ATOM      5  C   UNL     1       4.203  -1.319   2.380  1.00  0.00    +0.000 C 
ATOM      6  C   UNL     1       2.854  -1.943   1.938  1.00  0.00    +0.000 C 
ENDROOT
BRANCH   1   7
ATOM      7  O   UNL     1       2.960  -3.735   0.299  1.00  0.00    +0.000 OA
ATOM      8  H   UNL     1       3.816  -4.119   0.535  1.00  0.00    +0.000 HD
ENDBRANCH   1   7
BRANCH   5   9
ATOM      9  O   UNL     1       4.555  -1.748   3.698  1.00  0.00    +0.000 OA
ATOM     10  H   UNL     1       3.949  -1.308   4.307  1.00  0.00    +0.000 HD
ENDBRANCH   5   9
BRANCH   6  11
ATOM     11  O   UNL     1       1.801  -0.984   2.050  1.00  0.00    +0.000 OA
ATOM     12  H   UNL     1       2.170  -0.130   1.783  1.00  0.00    +0.000 HD
ENDBRANCH   6  11
BRANCH   6  13
ATOM     13  O   UNL     1       2.560  -3.103   2.716  1.00  0.00    +0.000 OA
ATOM     14  H   UNL     1       3.362  -3.645   2.724  1.00  0.00    +0.000 HD
ENDBRANCH   6  13
TORSDOF 4
ENDMDL
MODEL 9
REMARK VINA RESULT:    -4.675     12.570     13.654
REMARK INTER + INTRA:          -5.221
REMARK INTER:                  -5.221
REMARK INTRA:                   0.000
REMARK UNBOUND:                 0.000
REMARK  Name = PAV
REMARK  5 active torsions:
REMARK  status: ('A' for Active; 'I' for Inactive)
REMARK    1  A    between atoms: O_1  and  C_2
REMARK    2  A    between atoms: C_2  and  C_3
REMARK    3  A    between atoms: C_6  and  O_7
REMARK    4  A    between atoms: C_8  and  O_9
REMARK    5  A    between atoms: C_8  and  O_10
REMARK                            x       y       z     vdW  Elec       q    Type
REMARK                         _______ _______ _______ _____ _____    ______ ____
ROOT
ATOM      1  C   UNL     1      -8.224  -9.356   1.010  1.00  0.00    +0.000 C 
ATOM      2  C   UNL     1      -9.418  -8.606   1.603  1.00  0.00    +0.000 C 
ATOM      3  O   UNL     1      -8.610 -10.696   0.665  1.00  0.00    +0.000 OA
ATOM      4  C   UNL     1      -7.862 -11.061  -0.514  1.00  0.00    +0.000 C 
ATOM      5  C   UNL     1      -7.880  -9.767  -1.367  1.00  0.00    +0.000 C 
ATOM      6  C   UNL     1      -7.758  -8.663  -0.284  1.00  0.00    +0.000 C 
ENDROOT
BRANCH   1   7
ATOM      7  O   UNL     1      -7.152  -9.388   1.956  1.00  0.00    +0.000 OA
ATOM      8  H   UNL     1      -6.968  -8.470   2.200  1.00  0.00    +0.000 HD
ENDBRANCH   1   7
BRANCH   5   9
ATOM      9  O   UNL     1      -6.765  -9.730  -2.260  1.00  0.00    +0.000 OA
ATOM     10  H   UNL     1      -6.807 -10.534  -2.794  1.00  0.00    +0.000 HD
ENDBRANCH   5   9
BRANCH   6  11
ATOM     11  O   UNL     1      -8.613  -7.562  -0.595  1.00  0.00    +0.000 OA
ATOM     12  H   UNL     1      -9.275  -7.513   0.110  1.00  0.00    +0.000 HD
ENDBRANCH   6  11
BRANCH   6  13
ATOM     13  O   UNL     1      -6.403  -8.228  -0.164  1.00  0.00    +0.000 OA
ATOM     14  H   UNL     1      -5.959  -8.855   0.423  1.00  0.00    +0.000 HD
ENDBRANCH   6  13
TORSDOF 4
ENDMDL
