MODEL 1
REMARK VINA RESULT:    -4.970      0.000      0.000
REMARK INTER + INTRA:          -6.458
REMARK INTER:                  -6.422
REMARK INTRA:                  -0.036
REMARK UNBOUND:                -0.036
REMARK  Name = 3VB
REMARK  7 active torsions:
REMARK  status: ('A' for Active; 'I' for Inactive)
REMARK    1  A    between atoms: O_1  and  C_2
REMARK    2  A    between atoms: C_2  and  C_3
REMARK    3  A    between atoms: C_3  and  O_4
REMARK    4  A    between atoms: C_3  and  C_5
REMARK    5  A    between atoms: C_5  and  O_6
REMARK    6  A    between atoms: C_5  and  C_7
REMARK    7  A    between atoms: C_7  and  O_8
REMARK                            x       y       z     vdW  Elec       q    Type
REMARK                         _______ _______ _______ _____ _____    ______ ____
ROOT
ATOM      1  C   UNL A   1       3.166  -2.100   1.099  1.00  0.00    +0.000 C 
ENDROOT
BRANCH   1   2
ATOM      2  O   UNL A   1       1.970  -1.326   1.206  1.00  0.00    +0.000 OA
ATOM      3  H   UNL A   1       1.265  -1.605   0.605  1.00  0.00    +0.000 HD
ENDBRANCH   1   2
BRANCH   1   4
ATOM      4  C   UNL A   1       4.156  -1.662   2.181  1.00  0.00    +0.000 C 
BRANCH   4   5
ATOM      5  O   UNL A   1       3.858  -0.325   2.586  1.00  0.00    +0.000 OA
ATOM      6  H   UNL A   1       3.251  -0.266   3.336  1.00  0.00    +0.000 HD
ENDBRANCH   4   5
ENDBRANCH   1   4
BRANCH   1   7
ATOM      7  C   UNL A   1       3.791  -1.885  -0.281  1.00  0.00    +0.000 C 
BRANCH   7   8
ATOM      8  O   UNL A   1       2.865  -2.289  -1.292  1.00  0.00    +0.000 OA
ATOM      9  H   UNL A   1       2.135  -2.832  -0.962  1.00  0.00    +0.000 HD
ENDBRANCH   7   8
BRANCH   7  10
ATOM     10  C   UNL A   1       5.069  -2.718  -0.397  1.00  0.00    +0.000 C 
BRANCH  10  11
ATOM     11  O   UNL A   1       4.944  -3.634  -1.486  1.00  0.00    +0.000 OA
ATOM     12  H   UNL A   1       5.788  -3.938  -1.845  1.00  0.00    +0.000 HD
ENDBRANCH  10  11
ENDBRANCH   7  10
ENDBRANCH   1   7
TORSDOF 7
ENDMDL
MODEL 2
REMARK VINA RESULT:    -4.968      0.080      3.454
REMARK INTER + INTRA:          -6.456
REMARK INTER:                  -6.421
REMARK INTRA:                  -0.035
REMARK UNBOUND:                -0.036
REMARK  Name = 3VB
REMARK  7 active torsions:
REMARK  status: ('A' for Active; 'I' for Inactive)
REMARK    1  A    between atoms: O_1  and  C_2
REMARK    2  A    between atoms: C_2  and  C_3
REMARK    3  A    between atoms: C_3  and  O_4
REMARK    4  A    between atoms: C_3  and  C_5
REMARK    5  A    between atoms: C_5  and  O_6
REMARK    6  A    between atoms: C_5  and  C_7
REMARK    7  A    between atoms: C_7  and  O_8
REMARK                            x       y       z     vdW  Elec       q    Type
REMARK                         _______ _______ _______ _____ _____    ______ ____
ROOT
ATOM      1  C   UNL A   1       3.778  -1.953  -0.275  1.00  0.00    +0.000 C 
ENDROOT
BRANCH   1   2
ATOM      2  O   UNL A   1       2.855  -2.314  -1.304  1.00  0.00    +0.000 OA
ATOM      3  H   UNL A   1       3.132  -3.077  -1.831  1.00  0.00    +0.000 HD
ENDBRANCH   1   2
BRANCH   1   4
ATOM      4  C   UNL A   1       5.031  -2.825  -0.383  1.00  0.00    +0.000 C 
BRANCH   4   5
ATOM      5  O   UNL A   1       4.933  -3.659  -1.539  1.00  0.00    +0.000 OA
ATOM      6  H   UNL A   1       5.779  -4.016  -1.840  1.00  0.00    +0.000 HD
ENDBRANCH   4   5
ENDBRANCH   1   4
BRANCH   1   7
ATOM      7  C   UNL A   1       3.125  -2.166   1.093  1.00  0.00    +0.000 C 
BRANCH   7   8
ATOM      8  O   UNL A   1       1.942  -1.369   1.185  1.00  0.00    +0.000 OA
ATOM      9  H   UNL A   1       1.142  -1.817   0.877  1.00  0.00    +0.000 HD
ENDBRANCH   7   8
BRANCH   7  10
ATOM     10  C   UNL A   1       4.104  -1.755   2.195  1.00  0.00    +0.000 C 
BRANCH  10  11
ATOM     11  O   UNL A   1       3.835  -0.409   2.594  1.00  0.00    +0.000 OA
ATOM     12  H   UNL A   1       4.217   0.258   2.009  1.00  0.00    +0.000 HD
ENDBRANCH  10  11
ENDBRANCH   7  10
ENDBRANCH   1   7
TORSDOF 7
ENDMDL
MODEL 3
REMARK VINA RESULT:    -4.916      1.503      2.333
REMARK INTER + INTRA:          -6.389
REMARK INTER:                  -5.736
REMARK INTRA:                  -0.653
REMARK UNBOUND:                -0.036
REMARK  Name = 3VB
REMARK  7 active torsions:
REMARK  status: ('A' for Active; 'I' for Inactive)
REMARK    1  A    between atoms: O_1  and  C_2
REMARK    2  A    between atoms: C_2  and  C_3
REMARK    3  A    between atoms: C_3  and  O_4
REMARK    4  A    between atoms: C_3  and  C_5
REMARK    5  A    between atoms: C_5  and  O_6
REMARK    6  A    between atoms: C_5  and  C_7
REMARK    7  A    between atoms: C_7  and  O_8
REMARK                            x       y       z     vdW  Elec       q    Type
REMARK                         _______ _______ _______ _____ _____    ______ ____
ROOT
ATOM      1  C   UNL A   1       3.992  -2.196   1.873  1.00  0.00    +0.000 C 
ENDROOT
BRANCH   1   2
ATOM      2  O   UNL A   1       3.306  -0.972   2.143  1.00  0.00    +0.000 OA
ATOM      3  H   UNL A   1       3.840  -0.318   2.615  1.00  0.00    +0.000 HD
ENDBRANCH   1   2
BRANCH   1   4
ATOM      4  C   UNL A   1       5.304  -1.897   1.144  1.00  0.00    +0.000 C 
BRANCH   4   5
ATOM      5  O   UNL A   1       5.105  -0.819   0.228  1.00  0.00    +0.000 OA
ATOM      6  H   UNL A   1       5.667  -0.861  -0.557  1.00  0.00    +0.000 HD
ENDBRANCH   4   5
ENDBRANCH   1   4
BRANCH   1   7
ATOM      7  C   UNL A   1       3.113  -3.091   0.996  1.00  0.00    +0.000 C 
BRANCH   7   8
ATOM      8  O   UNL A   1       3.889  -3.604  -0.088  1.00  0.00    +0.000 OA
ATOM      9  H   UNL A   1       3.398  -3.692  -0.917  1.00  0.00    +0.000 HD
ENDBRANCH   7   8
BRANCH   7  10
ATOM     10  C   UNL A   1       1.943  -2.274   0.445  1.00  0.00    +0.000 C 
BRANCH  10  11
ATOM     11  O   UNL A   1       2.325  -1.670  -0.793  1.00  0.00    +0.000 OA
ATOM     12  H   UNL A   1       1.759  -1.910  -1.539  1.00  0.00    +0.000 HD
ENDBRANCH  10  11
ENDBRANCH   7  10
ENDBRANCH   1   7
TORSDOF 7
ENDMDL
MODEL 4
REMARK VINA RESULT:    -4.910      1.476      3.506
REMARK INTER + INTRA:          -6.381
REMARK INTER:                  -5.925
REMARK INTRA:                  -0.456
REMARK UNBOUND:                -0.036
REMARK  Name = 3VB
REMARK  7 active torsions:
REMARK  status: ('A' for Active; 'I' for Inactive)
REMARK    1  A    between atoms: O_1  and  C_2
REMARK    2  A    between atoms: C_2  and  C_3
REMARK    3  A    between atoms: C_3  and  O_4
REMARK    4  A    between atoms: C_3  and  C_5
REMARK    5  A    between atoms: C_5  and  O_6
REMARK    6  A    between atoms: C_5  and  C_7
REMARK    7  A    between atoms: C_7  and  O_8
REMARK                            x       y       z     vdW  Elec       q    Type
REMARK                         _______ _______ _______ _____ _____    ______ ____
ROOT
ATOM      1  C   UNL A   1       4.708  -2.389   0.557  1.00  0.00    +0.000 C 
ENDROOT
BRANCH   1   2
ATOM      2  O   UNL A   1       5.845  -1.707   1.089  1.00  0.00    +0.000 OA
ATOM      3  H   UNL A   1       6.333  -1.188   0.436  1.00  0.00    +0.000 HD
ENDBRANCH   1   2
BRANCH   1   4
ATOM      4  C   UNL A   1       4.091  -1.554  -0.567  1.00  0.00    +0.000 C 
BRANCH   4   5
ATOM      5  O   UNL A   1       3.143  -2.346  -1.284  1.00  0.00    +0.000 OA
ATOM      6  H   UNL A   1       2.358  -1.860  -1.569  1.00  0.00    +0.000 HD
ENDBRANCH   4   5
ENDBRANCH   1   4
BRANCH   1   7
ATOM      7  C   UNL A   1       3.673  -2.597   1.665  1.00  0.00    +0.000 C 
BRANCH   7   8
ATOM      8  O   UNL A   1       2.702  -3.554   1.237  1.00  0.00    +0.000 OA
ATOM      9  H   UNL A   1       2.510  -3.522   0.290  1.00  0.00    +0.000 HD
ENDBRANCH   7   8
BRANCH   7  10
ATOM     10  C   UNL A   1       2.980  -1.268   1.972  1.00  0.00    +0.000 C 
BRANCH  10  11
ATOM     11  O   UNL A   1       3.881  -0.412   2.677  1.00  0.00    +0.000 OA
ATOM     12  H   UNL A   1       3.448   0.310   3.152  1.00  0.00    +0.000 HD
ENDBRANCH  10  11
ENDBRANCH   7  10
ENDBRANCH   1   7
TORSDOF 7
ENDMDL
MODEL 5
REMARK VINA RESULT:    -4.908      1.478      1.999
REMARK INTER + INTRA:          -6.378
REMARK INTER:                  -5.929
REMARK INTRA:                  -0.449
REMARK UNBOUND:                -0.036
REMARK  Name = 3VB
REMARK  7 active torsions:
REMARK  status: ('A' for Active; 'I' for Inactive)
REMARK    1  A    between atoms: O_1  and  C_2
REMARK    2  A    between atoms: C_2  and  C_3
REMARK    3  A    between atoms: C_3  and  O_4
REMARK    4  A    between atoms: C_3  and  C_5
REMARK    5  A    between atoms: C_5  and  O_6
REMARK    6  A    between atoms: C_5  and  C_7
REMARK    7  A    between atoms: C_7  and  O_8
REMARK                            x       y       z     vdW  Elec       q    Type
REMARK                         _______ _______ _______ _____ _____    ______ ____
ROOT
ATOM      1  C   UNL A   1       3.655  -2.613   1.680  1.00  0.00    +0.000 C 
ENDROOT
BRANCH   1   2
ATOM      2  O   UNL A   1       2.681  -3.565   1.249  1.00  0.00    +0.000 OA
ATOM      3  H   UNL A   1       2.880  -4.475   1.506  1.00  0.00    +0.000 HD
ENDBRANCH   1   2
BRANCH   1   4
ATOM      4  C   UNL A   1       2.967  -1.283   1.992  1.00  0.00    +0.000 C 
BRANCH   4   5
ATOM      5  O   UNL A   1       3.882  -0.420   2.670  1.00  0.00    +0.000 OA
ATOM      6  H   UNL A   1       3.576   0.493   2.752  1.00  0.00    +0.000 HD
ENDBRANCH   4   5
ENDBRANCH   1   4
BRANCH   1   7
ATOM      7  C   UNL A   1       4.691  -2.405   0.572  1.00  0.00    +0.000 C 
BRANCH   7   8
ATOM      8  O   UNL A   1       5.833  -1.733   1.107  1.00  0.00    +0.000 OA
ATOM      9  H   UNL A   1       6.671  -2.181   0.931  1.00  0.00    +0.000 HD
ENDBRANCH   7   8
BRANCH   7  10
ATOM     10  C   UNL A   1       4.078  -1.559  -0.546  1.00  0.00    +0.000 C 
BRANCH  10  11
ATOM     11  O   UNL A   1       3.138  -2.346  -1.279  1.00  0.00    +0.000 OA
ATOM     12  H   UNL A   1       3.308  -2.379  -2.230  1.00  0.00    +0.000 HD
ENDBRANCH  10  11
ENDBRANCH   7  10
ENDBRANCH   1   7
TORSDOF 7
ENDMDL
MODEL 6
REMARK VINA RESULT:    -4.897      1.492      2.915
REMARK INTER + INTRA:          -6.364
REMARK INTER:                  -5.769
REMARK INTRA:                  -0.595
REMARK UNBOUND:                -0.036
REMARK  Name = 3VB
REMARK  7 active torsions:
REMARK  status: ('A' for Active; 'I' for Inactive)
REMARK    1  A    between atoms: O_1  and  C_2
REMARK    2  A    between atoms: C_2  and  C_3
REMARK    3  A    between atoms: C_3  and  O_4
REMARK    4  A    between atoms: C_3  and  C_5
REMARK    5  A    between atoms: C_5  and  O_6
REMARK    6  A    between atoms: C_5  and  C_7
REMARK    7  A    between atoms: C_7  and  O_8
REMARK                            x       y       z     vdW  Elec       q    Type
REMARK                         _______ _______ _______ _____ _____    ______ ____
ROOT
ATOM      1  C   UNL A   1       3.073  -3.008   1.035  1.00  0.00    +0.000 C 
ENDROOT
BRANCH   1   2
ATOM      2  O   UNL A   1       3.841  -3.575  -0.028  1.00  0.00    +0.000 OA
ATOM      3  H   UNL A   1       4.585  -3.027  -0.311  1.00  0.00    +0.000 HD
ENDBRANCH   1   2
BRANCH   1   4
ATOM      4  C   UNL A   1       1.952  -2.146   0.453  1.00  0.00    +0.000 C 
BRANCH   4   5
ATOM      5  O   UNL A   1       2.339  -1.667  -0.836  1.00  0.00    +0.000 OA
ATOM      6  H   UNL A   1       2.521  -2.366  -1.478  1.00  0.00    +0.000 HD
ENDBRANCH   4   5
ENDBRANCH   1   4
BRANCH   1   7
ATOM      7  C   UNL A   1       3.980  -2.142   1.913  1.00  0.00    +0.000 C 
BRANCH   7   8
ATOM      8  O   UNL A   1       3.340  -0.890   2.169  1.00  0.00    +0.000 OA
ATOM      9  H   UNL A   1       3.913  -0.122   2.040  1.00  0.00    +0.000 HD
ENDBRANCH   7   8
BRANCH   7  10
ATOM     10  C   UNL A   1       5.307  -1.899   1.192  1.00  0.00    +0.000 C 
BRANCH  10  11
ATOM     11  O   UNL A   1       5.149  -0.841   0.245  1.00  0.00    +0.000 OA
ATOM     12  H   UNL A   1       5.231   0.044   0.625  1.00  0.00    +0.000 HD
ENDBRANCH  10  11
ENDBRANCH   7  10
ENDBRANCH   1   7
TORSDOF 7
ENDMDL
MODEL 7
REMARK VINA RESULT:    -4.782      1.509      2.329
REMARK INTER + INTRA:          -6.215
REMARK INTER:                  -6.145
REMARK INTRA:                  -0.070
REMARK UNBOUND:                -0.036
REMARK  Name = 3VB
REMARK  7 active torsions:
REMARK  status: ('A' for Active; 'I' for Inactive)
REMARK    1  A    between atoms: O_1  and  C_2
REMARK    2  A    between atoms: C_2  and  C_3
REMARK    3  A    between atoms: C_3  and  O_4
REMARK    4  A    between atoms: C_3  and  C_5
REMARK    5  A    between atoms: C_5  and  O_6
REMARK    6  A    between atoms: C_5  and  C_7
REMARK    7  A    between atoms: C_7  and  O_8
REMARK                            x       y       z     vdW  Elec       q    Type
REMARK                         _______ _______ _______ _____ _____    ______ ____
ROOT
ATOM      1  C   UNL A   1       4.516  -1.647   0.809  1.00  0.00    +0.000 C 
ENDROOT
BRANCH   1   2
ATOM      2  O   UNL A   1       5.940  -1.736   0.739  1.00  0.00    +0.000 OA
ATOM      3  H   UNL A   1       6.339  -1.147   0.083  1.00  0.00    +0.000 HD
ENDBRANCH   1   2
BRANCH   1   4
ATOM      4  C   UNL A   1       4.078  -1.615   2.275  1.00  0.00    +0.000 C 
BRANCH   4   5
ATOM      5  O   UNL A   1       3.709  -0.282   2.633  1.00  0.00    +0.000 OA
ATOM      6  H   UNL A   1       4.193   0.404   2.153  1.00  0.00    +0.000 HD
ENDBRANCH   4   5
ENDBRANCH   1   4
BRANCH   1   7
ATOM      7  C   UNL A   1       3.893  -2.862   0.117  1.00  0.00    +0.000 C 
BRANCH   7   8
ATOM      8  O   UNL A   1       3.455  -2.493  -1.192  1.00  0.00    +0.000 OA
ATOM      9  H   UNL A   1       3.594  -1.560  -1.404  1.00  0.00    +0.000 HD
ENDBRANCH   7   8
BRANCH   7  10
ATOM     10  C   UNL A   1       2.699  -3.358   0.935  1.00  0.00    +0.000 C 
BRANCH  10  11
ATOM     11  O   UNL A   1       1.486  -2.908   0.328  1.00  0.00    +0.000 OA
ATOM     12  H   UNL A   1       0.901  -2.427   0.928  1.00  0.00    +0.000 HD
ENDBRANCH  10  11
ENDBRANCH   7  10
ENDBRANCH   1   7
TORSDOF 7
ENDMDL
MODEL 8
REMARK VINA RESULT:    -4.770      1.507      3.376
REMARK INTER + INTRA:          -6.200
REMARK INTER:                  -6.153
REMARK INTRA:                  -0.047
REMARK UNBOUND:                -0.036
REMARK  Name = 3VB
REMARK  7 active torsions:
REMARK  status: ('A' for Active; 'I' for Inactive)
REMARK    1  A    between atoms: O_1  and  C_2
REMARK    2  A    between atoms: C_2  and  C_3
REMARK    3  A    between atoms: C_3  and  O_4
REMARK    4  A    between atoms: C_3  and  C_5
REMARK    5  A    between atoms: C_5  and  O_6
REMARK    6  A    between atoms: C_5  and  C_7
REMARK    7  A    between atoms: C_7  and  O_8
REMARK                            x       y       z     vdW  Elec       q    Type
REMARK                         _______ _______ _______ _____ _____    ______ ____
ROOT
ATOM      1  C   UNL A   1       3.883  -2.877   0.114  1.00  0.00    +0.000 C 
ENDROOT
BRANCH   1   2
ATOM      2  O   UNL A   1       3.467  -2.506  -1.202  1.00  0.00    +0.000 OA
ATOM      3  H   UNL A   1       3.709  -1.604  -1.452  1.00  0.00    +0.000 HD
ENDBRANCH   1   2
BRANCH   1   4
ATOM      4  C   UNL A   1       2.680  -3.396   0.903  1.00  0.00    +0.000 C 
BRANCH   4   5
ATOM      5  O   UNL A   1       1.475  -2.910   0.310  1.00  0.00    +0.000 OA
ATOM      6  H   UNL A   1       1.037  -3.547  -0.271  1.00  0.00    +0.000 HD
ENDBRANCH   4   5
ENDBRANCH   1   4
BRANCH   1   7
ATOM      7  C   UNL A   1       4.471  -1.656   0.826  1.00  0.00    +0.000 C 
BRANCH   7   8
ATOM      8  O   UNL A   1       5.897  -1.747   0.828  1.00  0.00    +0.000 OA
ATOM      9  H   UNL A   1       6.297  -1.640   1.702  1.00  0.00    +0.000 HD
ENDBRANCH   7   8
BRANCH   7  10
ATOM     10  C   UNL A   1       3.960  -1.611   2.267  1.00  0.00    +0.000 C 
BRANCH  10  11
ATOM     11  O   UNL A   1       3.731  -0.253   2.649  1.00  0.00    +0.000 OA
ATOM     12  H   UNL A   1       3.996   0.394   1.983  1.00  0.00    +0.000 HD
ENDBRANCH  10  11
ENDBRANCH   7  10
ENDBRANCH   1   7
TORSDOF 7
ENDMDL
MODEL 9
REMARK VINA RESULT:    -4.621      1.406      2.117
REMARK INTER + INTRA:          -6.008
REMARK INTER:                  -5.322
REMARK INTRA:                  -0.686
REMARK UNBOUND:                -0.036
REMARK  Name = 3VB
REMARK  7 active torsions:
REMARK  status: ('A' for Active; 'I' for Inactive)
REMARK    1  A    between atoms: O_1  and  C_2
REMARK    2  A    between atoms: C_2  and  C_3
REMARK    3  A    between atoms: C_3  and  O_4
REMARK    4  A    between atoms: C_3  and  C_5
REMARK    5  A    between atoms: C_5  and  O_6
REMARK    6  A    between atoms: C_5  and  C_7
REMARK    7  A    between atoms: C_7  and  O_8
REMARK                            x       y       z     vdW  Elec       q    Type
REMARK                         _______ _______ _______ _____ _____    ______ ____
ROOT
ATOM      1  C   UNL A   1       3.152  -1.702   1.171  1.00  0.00    +0.000 C 
ENDROOT
BRANCH   1   2
ATOM      2  O   UNL A   1       4.313  -2.322   1.727  1.00  0.00    +0.000 OA
ATOM      3  H   UNL A   1       4.905  -2.709   1.068  1.00  0.00    +0.000 HD
ENDBRANCH   1   2
BRANCH   1   4
ATOM      4  C   UNL A   1       2.015  -2.723   1.092  1.00  0.00    +0.000 C 
BRANCH   4   5
ATOM      5  O   UNL A   1       2.498  -3.928   0.494  1.00  0.00    +0.000 OA
ATOM      6  H   UNL A   1       2.396  -3.959  -0.467  1.00  0.00    +0.000 HD
ENDBRANCH   4   5
ENDBRANCH   1   4
BRANCH   1   7
ATOM      7  C   UNL A   1       3.472  -1.185  -0.234  1.00  0.00    +0.000 C 
BRANCH   7   8
ATOM      8  O   UNL A   1       2.464  -1.626  -1.145  1.00  0.00    +0.000 OA
ATOM      9  H   UNL A   1       2.347  -2.586  -1.168  1.00  0.00    +0.000 HD
ENDBRANCH   7   8
BRANCH   7  10
ATOM     10  C   UNL A   1       4.833  -1.725  -0.677  1.00  0.00    +0.000 C 
BRANCH  10  11
ATOM     11  O   UNL A   1       4.675  -3.048  -1.195  1.00  0.00    +0.000 OA
ATOM     12  H   UNL A   1       4.031  -3.116  -1.912  1.00  0.00    +0.000 HD
ENDBRANCH  10  11
ENDBRANCH   7  10
ENDBRANCH   1   7
TORSDOF 7
ENDMDL
