MODEL 1
REMARK VINA RESULT:    -6.050      0.000      0.000
REMARK INTER + INTRA:          -7.540
REMARK INTER:                  -7.288
REMARK INTRA:                  -0.252
REMARK UNBOUND:                -0.252
REMARK  Name = GAL
REMARK  6 active torsions:
REMARK  status: ('A' for Active; 'I' for Inactive)
REMARK    1  A    between atoms: C_1  and  O_7
REMARK    2  A    between atoms: C_2  and  O_8
REMARK    3  A    between atoms: C_3  and  O_9
REMARK    4  A    between atoms: C_4  and  O_10
REMARK    5  A    between atoms: C_5  and  C_6
REMARK    6  A    between atoms: C_6  and  O_12
REMARK                            x       y       z     vdW  Elec       q    Type
REMARK                         _______ _______ _______ _____ _____    ______ ____
ROOT
ATOM      1  C   UNL     1       3.828  -1.315   2.189  1.00  0.00    +0.000 C 
ATOM      2  C   UNL     1       2.378  -1.538   1.749  1.00  0.00    +0.000 C 
ATOM      3  C   UNL     1       2.275  -2.880   1.019  1.00  0.00    +0.000 C 
ATOM      4  C   UNL     1       3.247  -2.882  -0.164  1.00  0.00    +0.000 C 
ATOM      5  C   UNL     1       4.664  -2.607   0.348  1.00  0.00    +0.000 C 
ATOM      6  O   UNL     1       4.683  -1.359   1.045  1.00  0.00    +0.000 OA
ENDROOT
BRANCH   1   7
ATOM      7  O   UNL     1       3.943  -0.038   2.821  1.00  0.00    +0.000 OA
ATOM      8  H   UNL     1       3.257   0.591   2.562  1.00  0.00    +0.000 HD
ENDBRANCH   1   7
BRANCH   2   9
ATOM      9  O   UNL     1       1.528  -1.552   2.898  1.00  0.00    +0.000 OA
ATOM     10  H   UNL     1       1.952  -1.889   3.698  1.00  0.00    +0.000 HD
ENDBRANCH   2   9
BRANCH   3  11
ATOM     11  O   UNL     1       0.940  -3.064   0.541  1.00  0.00    +0.000 OA
ATOM     12  H   UNL     1       0.843  -3.799  -0.079  1.00  0.00    +0.000 HD
ENDBRANCH   3  11
BRANCH   4  13
ATOM     13  O   UNL     1       2.870  -1.864  -1.093  1.00  0.00    +0.000 OA
ATOM     14  H   UNL     1       2.956  -2.127  -2.021  1.00  0.00    +0.000 HD
ENDBRANCH   4  13
BRANCH   5  15
ATOM     15  C   UNL     1       5.632  -2.547  -0.834  1.00  0.00    +0.000 C 
BRANCH  15  16
ATOM     16  O   UNL     1       5.248  -3.516  -1.813  1.00  0.00    +0.000 OA
ATOM     17  H   UNL     1       5.522  -4.419  -1.600  1.00  0.00    +0.000 HD
ENDBRANCH  15  16
ENDBRANCH   5  15
TORSDOF 6
ENDMDL
MODEL 2
REMARK VINA RESULT:    -5.813      1.496      4.262
REMARK INTER + INTRA:          -7.254
REMARK INTER:                  -7.089
REMARK INTRA:                  -0.165
REMARK UNBOUND:                -0.252
REMARK  Name = GAL
REMARK  6 active torsions:
REMARK  status: ('A' for Active; 'I' for Inactive)
REMARK    1  A    between atoms: C_1  and  O_7
REMARK    2  A    between atoms: C_2  and  O_8
REMARK    3  A    between atoms: C_3  and  O_9
REMARK    4  A    between atoms: C_4  and  O_10
REMARK    5  A    between atoms: C_5  and  C_6
REMARK    6  A    between atoms: C_6  and  O_12
REMARK                            x       y       z     vdW  Elec       q    Type
REMARK                         _______ _______ _______ _____ _____    ______ ____
ROOT
ATOM      1  C   UNL     1       2.773  -1.623  -0.302  1.00  0.00    +0.000 C 
ATOM      2  C   UNL     1       4.229  -1.239  -0.025  1.00  0.00    +0.000 C 
ATOM      3  C   UNL     1       4.799  -2.170   1.049  1.00  0.00    +0.000 C 
ATOM      4  C   UNL     1       3.926  -2.078   2.304  1.00  0.00    +0.000 C 
ATOM      5  C   UNL     1       2.481  -2.430   1.938  1.00  0.00    +0.000 C 
ATOM      6  O   UNL     1       2.023  -1.547   0.912  1.00  0.00    +0.000 OA
ENDROOT
BRANCH   1   7
ATOM      7  O   UNL     1       2.218  -0.723  -1.263  1.00  0.00    +0.000 OA
ATOM      8  H   UNL     1       1.258  -0.789  -1.355  1.00  0.00    +0.000 HD
ENDBRANCH   1   7
BRANCH   2   9
ATOM      9  O   UNL     1       4.994  -1.370  -1.225  1.00  0.00    +0.000 OA
ATOM     10  H   UNL     1       4.477  -1.266  -2.036  1.00  0.00    +0.000 HD
ENDBRANCH   2   9
BRANCH   3  11
ATOM     11  O   UNL     1       6.135  -1.773   1.367  1.00  0.00    +0.000 OA
ATOM     12  H   UNL     1       6.691  -2.492   1.696  1.00  0.00    +0.000 HD
ENDBRANCH   3  11
BRANCH   4  13
ATOM     13  O   UNL     1       3.976  -0.750   2.825  1.00  0.00    +0.000 OA
ATOM     14  H   UNL     1       3.503  -0.637   3.662  1.00  0.00    +0.000 HD
ENDBRANCH   4  13
BRANCH   5  15
ATOM     15  C   UNL     1       1.591  -2.283   3.173  1.00  0.00    +0.000 C 
BRANCH  15  16
ATOM     16  O   UNL     1       2.151  -3.031   4.255  1.00  0.00    +0.000 OA
ATOM     17  H   UNL     1       2.596  -2.487   4.919  1.00  0.00    +0.000 HD
ENDBRANCH  15  16
ENDBRANCH   5  15
TORSDOF 6
ENDMDL
MODEL 3
REMARK VINA RESULT:    -5.013      1.476      3.615
REMARK INTER + INTRA:          -6.290
REMARK INTER:                  -6.113
REMARK INTRA:                  -0.177
REMARK UNBOUND:                -0.252
REMARK  Name = GAL
REMARK  6 active torsions:
REMARK  status: ('A' for Active; 'I' for Inactive)
REMARK    1  A    between atoms: C_1  and  O_7
REMARK    2  A    between atoms: C_2  and  O_8
REMARK    3  A    between atoms: C_3  and  O_9
REMARK    4  A    between atoms: C_4  and  O_10
REMARK    5  A    between atoms: C_5  and  C_6
REMARK    6  A    between atoms: C_6  and  O_12
REMARK                            x       y       z     vdW  Elec       q    Type
REMARK                         _______ _______ _______ _____ _____    ______ ____
ROOT
ATOM      1  C   UNL     1       4.607  -1.381   1.603  1.00  0.00    +0.000 C 
ATOM      2  C   UNL     1       4.327  -1.934   0.203  1.00  0.00    +0.000 C 
ATOM      3  C   UNL     1       2.882  -1.612  -0.186  1.00  0.00    +0.000 C 
ATOM      4  C   UNL     1       1.939  -2.199   0.869  1.00  0.00    +0.000 C 
ATOM      5  C   UNL     1       2.309  -1.636   2.244  1.00  0.00    +0.000 C 
ATOM      6  O   UNL     1       3.676  -1.943   2.530  1.00  0.00    +0.000 OA
ENDROOT
BRANCH   1   7
ATOM      7  O   UNL     1       5.937  -1.727   1.995  1.00  0.00    +0.000 OA
ATOM      8  H   UNL     1       5.991  -2.177   2.849  1.00  0.00    +0.000 HD
ENDBRANCH   1   7
BRANCH   2   9
ATOM      9  O   UNL     1       5.220  -1.330  -0.736  1.00  0.00    +0.000 OA
ATOM     10  H   UNL     1       6.038  -0.995  -0.343  1.00  0.00    +0.000 HD
ENDBRANCH   2   9
BRANCH   3  11
ATOM     11  O   UNL     1       2.589  -2.188  -1.461  1.00  0.00    +0.000 OA
ATOM     12  H   UNL     1       1.893  -2.859  -1.439  1.00  0.00    +0.000 HD
ENDBRANCH   3  11
BRANCH   4  13
ATOM     13  O   UNL     1       2.066  -3.621   0.885  1.00  0.00    +0.000 OA
ATOM     14  H   UNL     1       2.839  -3.941   1.371  1.00  0.00    +0.000 HD
ENDBRANCH   4  13
BRANCH   5  15
ATOM     15  C   UNL     1       1.411  -2.263   3.311  1.00  0.00    +0.000 C 
BRANCH  15  16
ATOM     16  O   UNL     1       2.179  -3.165   4.110  1.00  0.00    +0.000 OA
ATOM     17  H   UNL     1       2.875  -2.737   4.627  1.00  0.00    +0.000 HD
ENDBRANCH  15  16
ENDBRANCH   5  15
TORSDOF 6
ENDMDL
MODEL 4
REMARK VINA RESULT:    -4.843      1.373      3.575
REMARK INTER + INTRA:          -6.085
REMARK INTER:                  -5.844
REMARK INTRA:                  -0.241
REMARK UNBOUND:                -0.252
REMARK  Name = GAL
REMARK  6 active torsions:
REMARK  status: ('A' for Active; 'I' for Inactive)
REMARK    1  A    between atoms: C_1  and  O_7
REMARK    2  A    between atoms: C_2  and  O_8
REMARK    3  A    between atoms: C_3  and  O_9
REMARK    4  A    between atoms: C_4  and  O_10
REMARK    5  A    between atoms: C_5  and  C_6
REMARK    6  A    between atoms: C_6  and  O_12
REMARK                            x       y       z     vdW  Elec       q    Type
REMARK                         _______ _______ _______ _____ _____    ______ ____
ROOT
ATOM      1  C   UNL     1       4.537  -2.272  -0.316  1.00  0.00    +0.000 C 
ATOM      2  C   UNL     1       3.036  -2.329  -0.022  1.00  0.00    +0.000 C 
ATOM      3  C   UNL     1       2.685  -1.256   1.013  1.00  0.00    +0.000 C 
ATOM      4  C   UNL     1       3.531  -1.479   2.270  1.00  0.00    +0.000 C 
ATOM      5  C   UNL     1       5.014  -1.454   1.888  1.00  0.00    +0.000 C 
ATOM      6  O   UNL     1       5.266  -2.455   0.899  1.00  0.00    +0.000 OA
ENDROOT
BRANCH   1   7
ATOM      7  O   UNL     1       4.882  -3.307  -1.239  1.00  0.00    +0.000 OA
ATOM      8  H   UNL     1       5.501  -3.029  -1.927  1.00  0.00    +0.000 HD
ENDBRANCH   1   7
BRANCH   2   9
ATOM      9  O   UNL     1       2.304  -2.089  -1.226  1.00  0.00    +0.000 OA
ATOM     10  H   UNL     1       1.344  -2.079  -1.108  1.00  0.00    +0.000 HD
ENDBRANCH   2   9
BRANCH   3  11
ATOM     11  O   UNL     1       1.298  -1.351   1.349  1.00  0.00    +0.000 OA
ATOM     12  H   UNL     1       1.059  -0.885   2.162  1.00  0.00    +0.000 HD
ENDBRANCH   3  11
BRANCH   4  13
ATOM     13  O   UNL     1       3.208  -2.745   2.846  1.00  0.00    +0.000 OA
ATOM     14  H   UNL     1       3.980  -3.264   3.113  1.00  0.00    +0.000 HD
ENDBRANCH   4  13
BRANCH   5  15
ATOM     15  C   UNL     1       5.865  -1.735   3.128  1.00  0.00    +0.000 C 
BRANCH  15  16
ATOM     16  O   UNL     1       5.315  -1.041   4.250  1.00  0.00    +0.000 OA
ATOM     17  H   UNL     1       5.961  -0.838   4.941  1.00  0.00    +0.000 HD
ENDBRANCH  15  16
ENDBRANCH   5  15
TORSDOF 6
ENDMDL
MODEL 5
REMARK VINA RESULT:    -4.682      1.443      3.389
REMARK INTER + INTRA:          -5.892
REMARK INTER:                  -5.862
REMARK INTRA:                  -0.030
REMARK UNBOUND:                -0.252
REMARK  Name = GAL
REMARK  6 active torsions:
REMARK  status: ('A' for Active; 'I' for Inactive)
REMARK    1  A    between atoms: C_1  and  O_7
REMARK    2  A    between atoms: C_2  and  O_8
REMARK    3  A    between atoms: C_3  and  O_9
REMARK    4  A    between atoms: C_4  and  O_10
REMARK    5  A    between atoms: C_5  and  C_6
REMARK    6  A    between atoms: C_6  and  O_12
REMARK                            x       y       z     vdW  Elec       q    Type
REMARK                         _______ _______ _______ _____ _____    ______ ____
ROOT
ATOM      1  C   UNL     1       2.277  -1.764   1.887  1.00  0.00    +0.000 C 
ATOM      2  C   UNL     1       2.688  -1.885   0.417  1.00  0.00    +0.000 C 
ATOM      3  C   UNL     1       3.960  -2.732   0.318  1.00  0.00    +0.000 C 
ATOM      4  C   UNL     1       5.054  -2.091   1.177  1.00  0.00    +0.000 C 
ATOM      5  C   UNL     1       4.553  -1.962   2.618  1.00  0.00    +0.000 C 
ATOM      6  O   UNL     1       3.351  -1.189   2.635  1.00  0.00    +0.000 OA
ENDROOT
BRANCH   1   7
ATOM      7  O   UNL     1       1.122  -0.927   1.991  1.00  0.00    +0.000 OA
ATOM      8  H   UNL     1       0.332  -1.296   1.575  1.00  0.00    +0.000 HD
ENDBRANCH   1   7
BRANCH   2   9
ATOM      9  O   UNL     1       1.638  -2.511  -0.322  1.00  0.00    +0.000 OA
ATOM     10  H   UNL     1       1.010  -3.004   0.224  1.00  0.00    +0.000 HD
ENDBRANCH   2   9
BRANCH   3  11
ATOM     11  O   UNL     1       4.392  -2.789  -1.043  1.00  0.00    +0.000 OA
ATOM     12  H   UNL     1       4.560  -3.686  -1.364  1.00  0.00    +0.000 HD
ENDBRANCH   3  11
BRANCH   4  13
ATOM     13  O   UNL     1       5.368  -0.796   0.663  1.00  0.00    +0.000 OA
ATOM     14  H   UNL     1       4.800  -0.514  -0.068  1.00  0.00    +0.000 HD
ENDBRANCH   4  13
BRANCH   5  15
ATOM     15  C   UNL     1       5.618  -1.269   3.469  1.00  0.00    +0.000 C 
BRANCH  15  16
ATOM     16  O   UNL     1       5.371  -1.535   4.851  1.00  0.00    +0.000 OA
ATOM     17  H   UNL     1       5.601  -0.803   5.439  1.00  0.00    +0.000 HD
ENDBRANCH  15  16
ENDBRANCH   5  15
TORSDOF 6
ENDMDL
MODEL 6
REMARK VINA RESULT:    -4.643      0.919      2.704
REMARK INTER + INTRA:          -5.845
REMARK INTER:                  -5.609
REMARK INTRA:                  -0.236
REMARK UNBOUND:                -0.252
REMARK  Name = GAL
REMARK  6 active torsions:
REMARK  status: ('A' for Active; 'I' for Inactive)
REMARK    1  A    between atoms: C_1  and  O_7
REMARK    2  A    between atoms: C_2  and  O_8
REMARK    3  A    between atoms: C_3  and  O_9
REMARK    4  A    between atoms: C_4  and  O_10
REMARK    5  A    between atoms: C_5  and  C_6
REMARK    6  A    between atoms: C_6  and  O_12
REMARK                            x       y       z     vdW  Elec       q    Type
REMARK                         _______ _______ _______ _____ _____    ______ ____
ROOT
ATOM      1  C   UNL     1       1.956  -2.098   0.464  1.00  0.00    +0.000 C 
ATOM      2  C   UNL     1       2.498  -1.805   1.866  1.00  0.00    +0.000 C 
ATOM      3  C   UNL     1       3.665  -0.821   1.759  1.00  0.00    +0.000 C 
ATOM      4  C   UNL     1       4.734  -1.413   0.836  1.00  0.00    +0.000 C 
ATOM      5  C   UNL     1       4.108  -1.721  -0.527  1.00  0.00    +0.000 C 
ATOM      6  O   UNL     1       3.008  -2.617  -0.352  1.00  0.00    +0.000 OA
ENDROOT
BRANCH   1   7
ATOM      7  O   UNL     1       0.902  -3.060   0.552  1.00  0.00    +0.000 OA
ATOM      8  H   UNL     1       1.177  -3.964   0.347  1.00  0.00    +0.000 HD
ENDBRANCH   1   7
BRANCH   2   9
ATOM      9  O   UNL     1       1.462  -1.233   2.668  1.00  0.00    +0.000 OA
ATOM     10  H   UNL     1       0.813  -0.720   2.166  1.00  0.00    +0.000 HD
ENDBRANCH   2   9
BRANCH   3  11
ATOM     11  O   UNL     1       4.224  -0.597   3.056  1.00  0.00    +0.000 OA
ATOM     12  H   UNL     1       4.912   0.082   3.075  1.00  0.00    +0.000 HD
ENDBRANCH   3  11
BRANCH   4  13
ATOM     13  O   UNL     1       5.247  -2.617   1.409  1.00  0.00    +0.000 OA
ATOM     14  H   UNL     1       5.403  -3.323   0.766  1.00  0.00    +0.000 HD
ENDBRANCH   4  13
BRANCH   5  15
ATOM     15  C   UNL     1       5.154  -2.368  -1.435  1.00  0.00    +0.000 C 
BRANCH  15  16
ATOM     16  O   UNL     1       4.946  -3.782  -1.469  1.00  0.00    +0.000 OA
ATOM     17  H   UNL     1       5.597  -4.262  -2.000  1.00  0.00    +0.000 HD
ENDBRANCH  15  16
ENDBRANCH   5  15
TORSDOF 6
ENDMDL
MODEL 7
REMARK VINA RESULT:    -4.465      9.620     10.978
REMARK INTER + INTRA:          -5.630
REMARK INTER:                  -5.600
REMARK INTRA:                  -0.030
REMARK UNBOUND:                -0.252
REMARK  Name = GAL
REMARK  6 active torsions:
REMARK  status: ('A' for Active; 'I' for Inactive)
REMARK    1  A    between atoms: C_1  and  O_7
REMARK    2  A    between atoms: C_2  and  O_8
REMARK    3  A    between atoms: C_3  and  O_9
REMARK    4  A    between atoms: C_4  and  O_10
REMARK    5  A    between atoms: C_5  and  C_6
REMARK    6  A    between atoms: C_6  and  O_12
REMARK                            x       y       z     vdW  Elec       q    Type
REMARK                         _______ _______ _______ _____ _____    ______ ____
ROOT
ATOM      1  C   UNL     1      13.304   0.171   2.514  1.00  0.00    +0.000 C 
ATOM      2  C   UNL     1      12.115   0.918   3.125  1.00  0.00    +0.000 C 
ATOM      3  C   UNL     1      12.532   1.511   4.473  1.00  0.00    +0.000 C 
ATOM      4  C   UNL     1      13.039   0.385   5.379  1.00  0.00    +0.000 C 
ATOM      5  C   UNL     1      14.193  -0.341   4.682  1.00  0.00    +0.000 C 
ATOM      6  O   UNL     1      13.745  -0.842   3.420  1.00  0.00    +0.000 OA
ENDROOT
BRANCH   1   7
ATOM      7  O   UNL     1      12.905  -0.433   1.282  1.00  0.00    +0.000 OA
ATOM      8  H   UNL     1      12.021  -0.174   0.986  1.00  0.00    +0.000 HD
ENDBRANCH   1   7
BRANCH   2   9
ATOM      9  O   UNL     1      11.708   1.968   2.246  1.00  0.00    +0.000 OA
ATOM     10  H   UNL     1      12.336   2.701   2.190  1.00  0.00    +0.000 HD
ENDBRANCH   2   9
BRANCH   3  11
ATOM     11  O   UNL     1      11.408   2.147   5.085  1.00  0.00    +0.000 OA
ATOM     12  H   UNL     1      10.554   1.795   4.800  1.00  0.00    +0.000 HD
ENDBRANCH   3  11
BRANCH   4  13
ATOM     13  O   UNL     1      11.979  -0.538   5.633  1.00  0.00    +0.000 OA
ATOM     14  H   UNL     1      11.727  -1.069   4.864  1.00  0.00    +0.000 HD
ENDBRANCH   4  13
BRANCH   5  15
ATOM     15  C   UNL     1      14.665  -1.505   5.555  1.00  0.00    +0.000 C 
BRANCH  15  16
ATOM     16  O   UNL     1      15.950  -1.944   5.108  1.00  0.00    +0.000 OA
ATOM     17  H   UNL     1      16.600  -1.233   5.024  1.00  0.00    +0.000 HD
ENDBRANCH  15  16
ENDBRANCH   5  15
TORSDOF 6
ENDMDL
MODEL 8
REMARK VINA RESULT:    -4.392     11.694     13.760
REMARK INTER + INTRA:          -5.542
REMARK INTER:                  -5.295
REMARK INTRA:                  -0.247
REMARK UNBOUND:                -0.252
REMARK  Name = GAL
REMARK  6 active torsions:
REMARK  status: ('A' for Active; 'I' for Inactive)
REMARK    1  A    between atoms: C_1  and  O_7
REMARK    2  A    between atoms: C_2  and  O_8
REMARK    3  A    between atoms: C_3  and  O_9
REMARK    4  A    between atoms: C_4  and  O_10
REMARK    5  A    between atoms: C_5  and  C_6
REMARK    6  A    between atoms: C_6  and  O_12
REMARK                            x       y       z     vdW  Elec       q    Type
REMARK                         _______ _______ _______ _____ _____    ______ ____
ROOT
ATOM      1  C   UNL     1      -9.145  -8.456   2.188  1.00  0.00    +0.000 C 
ATOM      2  C   UNL     1      -7.615  -8.503   2.232  1.00  0.00    +0.000 C 
ATOM      3  C   UNL     1      -7.057  -7.972   0.909  1.00  0.00    +0.000 C 
ATOM      4  C   UNL     1      -7.629  -8.802  -0.244  1.00  0.00    +0.000 C 
ATOM      5  C   UNL     1      -9.159  -8.745  -0.194  1.00  0.00    +0.000 C 
ATOM      6  O   UNL     1      -9.611  -9.223   1.075  1.00  0.00    +0.000 OA
ENDROOT
BRANCH   1   7
ATOM      7  O   UNL     1      -9.674  -9.003   3.398  1.00  0.00    +0.000 OA
ATOM      8  H   UNL     1      -9.554  -8.434   4.170  1.00  0.00    +0.000 HD
ENDBRANCH   1   7
BRANCH   2   9
ATOM      9  O   UNL     1      -7.144  -7.690   3.310  1.00  0.00    +0.000 OA
ATOM     10  H   UNL     1      -6.280  -7.287   3.151  1.00  0.00    +0.000 HD
ENDBRANCH   2   9
BRANCH   3  11
ATOM     11  O   UNL     1      -5.631  -8.080   0.913  1.00  0.00    +0.000 OA
ATOM     12  H   UNL     1      -5.174  -7.233   1.013  1.00  0.00    +0.000 HD
ENDBRANCH   3  11
BRANCH   4  13
ATOM     13  O   UNL     1      -7.199 -10.158  -0.116  1.00  0.00    +0.000 OA
ATOM     14  H   UNL     1      -7.046 -10.438   0.798  1.00  0.00    +0.000 HD
ENDBRANCH   4  13
BRANCH   5  15
ATOM     15  C   UNL     1      -9.739  -9.620  -1.305  1.00  0.00    +0.000 C 
BRANCH  15  16
ATOM     16  O   UNL     1      -8.945  -9.480  -2.485  1.00  0.00    +0.000 OA
ATOM     17  H   UNL     1      -9.304  -8.854  -3.129  1.00  0.00    +0.000 HD
ENDBRANCH  15  16
ENDBRANCH   5  15
TORSDOF 6
ENDMDL
MODEL 9
REMARK VINA RESULT:    -4.348      9.758     11.495
REMARK INTER + INTRA:          -5.489
REMARK INTER:                  -5.235
REMARK INTRA:                  -0.254
REMARK UNBOUND:                -0.252
REMARK  Name = GAL
REMARK  6 active torsions:
REMARK  status: ('A' for Active; 'I' for Inactive)
REMARK    1  A    between atoms: C_1  and  O_7
REMARK    2  A    between atoms: C_2  and  O_8
REMARK    3  A    between atoms: C_3  and  O_9
REMARK    4  A    between atoms: C_4  and  O_10
REMARK    5  A    between atoms: C_5  and  C_6
REMARK    6  A    between atoms: C_6  and  O_12
REMARK                            x       y       z     vdW  Elec       q    Type
REMARK                         _______ _______ _______ _____ _____    ______ ____
ROOT
ATOM      1  C   UNL     1      14.991   1.336   3.668  1.00  0.00    +0.000 C 
ATOM      2  C   UNL     1      14.217   0.066   3.304  1.00  0.00    +0.000 C 
ATOM      3  C   UNL     1      12.805   0.449   2.852  1.00  0.00    +0.000 C 
ATOM      4  C   UNL     1      12.122   1.246   3.967  1.00  0.00    +0.000 C 
ATOM      5  C   UNL     1      12.976   2.471   4.306  1.00  0.00    +0.000 C 
ATOM      6  O   UNL     1      14.286   2.046   4.689  1.00  0.00    +0.000 OA
ENDROOT
BRANCH   1   7
ATOM      7  O   UNL     1      16.291   0.982   4.145  1.00  0.00    +0.000 OA
ATOM      8  H   UNL     1      16.457   0.030   4.161  1.00  0.00    +0.000 HD
ENDBRANCH   1   7
BRANCH   2   9
ATOM      9  O   UNL     1      14.890  -0.616   2.244  1.00  0.00    +0.000 OA
ATOM     10  H   UNL     1      15.812  -0.348   2.126  1.00  0.00    +0.000 HD
ENDBRANCH   2   9
BRANCH   3  11
ATOM     11  O   UNL     1      12.052  -0.735   2.580  1.00  0.00    +0.000 OA
ATOM     12  H   UNL     1      11.177  -0.566   2.204  1.00  0.00    +0.000 HD
ENDBRANCH   3  11
BRANCH   4  13
ATOM     13  O   UNL     1      11.986   0.424   5.127  1.00  0.00    +0.000 OA
ATOM     14  H   UNL     1      11.087   0.390   5.483  1.00  0.00    +0.000 HD
ENDBRANCH   4  13
BRANCH   5  15
ATOM     15  C   UNL     1      12.331   3.240   5.460  1.00  0.00    +0.000 C 
BRANCH  15  16
ATOM     16  O   UNL     1      10.910   3.110   5.383  1.00  0.00    +0.000 OA
ATOM     17  H   UNL     1      10.579   2.931   4.492  1.00  0.00    +0.000 HD
ENDBRANCH  15  16
ENDBRANCH   5  15
TORSDOF 6
ENDMDL
