MODEL 1
REMARK VINA RESULT:    -5.775      0.000      0.000
REMARK INTER + INTRA:          -7.911
REMARK INTER:                  -7.294
REMARK INTRA:                  -0.617
REMARK UNBOUND:                -0.617
REMARK  Name = GZL
REMARK  7 active torsions:
REMARK  status: ('A' for Active; 'I' for Inactive)
REMARK    1  A    between atoms: C_1  and  C_2
REMARK    2  A    between atoms: C_1  and  O_6
REMARK    3  A    between atoms: C_2  and  C_3
REMARK    4  A    between atoms: C_2  and  O_7
REMARK    5  A    between atoms: C_4  and  O_9
REMARK    6  A    between atoms: C_5  and  O_11
REMARK    7  A    between atoms: C_10  and  O_12
REMARK                            x       y       z     vdW  Elec       q    Type
REMARK                         _______ _______ _______ _____ _____    ______ ____
ROOT
ATOM      1  C   UNL     1       3.087  -2.751   0.796  1.00  0.00    +0.000 C 
ATOM      2  C   UNL     1       3.026  -1.512  -0.119  1.00  0.00    +0.000 C 
ATOM      3  C   UNL     1       4.488  -1.316  -0.590  1.00  0.00    +0.000 C 
ATOM      4  O   UNL     1       4.461  -3.165   0.862  1.00  0.00    +0.000 OA
ATOM      5  C   UNL     1       5.095  -2.722  -0.356  1.00  0.00    +0.000 C 
ENDROOT
BRANCH   2   6
ATOM      6  O   UNL     1       2.169  -1.757  -1.236  1.00  0.00    +0.000 OA
ATOM      7  H   UNL     1       1.237  -1.865  -1.001  1.00  0.00    +0.000 HD
ENDBRANCH   2   6
BRANCH   3   8
ATOM      8  O   UNL     1       5.152  -0.334   0.207  1.00  0.00    +0.000 OA
ATOM      9  H   UNL     1       6.019  -0.614   0.533  1.00  0.00    +0.000 HD
ENDBRANCH   3   8
BRANCH   5  10
ATOM     10  O   UNL     1       4.771  -3.597  -1.440  1.00  0.00    +0.000 OA
ATOM     11  H   UNL     1       5.273  -3.426  -2.248  1.00  0.00    +0.000 HD
ENDBRANCH   5  10
BRANCH   1  12
ATOM     12  C   UNL     1       2.583  -2.390   2.194  1.00  0.00    +0.000 C 
BRANCH  12  13
ATOM     13  O   UNL     1       1.741  -1.238   2.114  1.00  0.00    +0.000 OA
ATOM     14  H   UNL     1       1.397  -1.062   1.227  1.00  0.00    +0.000 HD
ENDBRANCH  12  13
BRANCH  12  15
ATOM     15  C   UNL     1       3.776  -2.087   3.103  1.00  0.00    +0.000 C 
BRANCH  15  16
ATOM     16  O   UNL     1       4.209  -0.742   2.888  1.00  0.00    +0.000 OA
ATOM     17  H   UNL     1       5.119  -0.669   2.570  1.00  0.00    +0.000 HD
ENDBRANCH  15  16
ENDBRANCH  12  15
ENDBRANCH   1  12
TORSDOF 7
ENDMDL
MODEL 2
REMARK VINA RESULT:    -5.640      1.367      3.745
REMARK INTER + INTRA:          -7.740
REMARK INTER:                  -7.047
REMARK INTRA:                  -0.693
REMARK UNBOUND:                -0.617
REMARK  Name = GZL
REMARK  7 active torsions:
REMARK  status: ('A' for Active; 'I' for Inactive)
REMARK    1  A    between atoms: C_1  and  C_2
REMARK    2  A    between atoms: C_1  and  O_6
REMARK    3  A    between atoms: C_2  and  C_3
REMARK    4  A    between atoms: C_2  and  O_7
REMARK    5  A    between atoms: C_4  and  O_9
REMARK    6  A    between atoms: C_5  and  O_11
REMARK    7  A    between atoms: C_10  and  O_12
REMARK                            x       y       z     vdW  Elec       q    Type
REMARK                         _______ _______ _______ _____ _____    ______ ____
ROOT
ATOM      1  C   UNL     1       4.419  -2.173   1.655  1.00  0.00    +0.000 C 
ATOM      2  C   UNL     1       3.560  -0.898   1.764  1.00  0.00    +0.000 C 
ATOM      3  C   UNL     1       2.103  -1.423   1.790  1.00  0.00    +0.000 C 
ATOM      4  O   UNL     1       3.518  -3.290   1.576  1.00  0.00    +0.000 OA
ATOM      5  C   UNL     1       2.297  -2.895   2.237  1.00  0.00    +0.000 C 
ENDROOT
BRANCH   2   6
ATOM      6  O   UNL     1       3.859  -0.195   2.972  1.00  0.00    +0.000 OA
ATOM      7  H   UNL     1       4.204   0.697   2.832  1.00  0.00    +0.000 HD
ENDBRANCH   2   6
BRANCH   3   8
ATOM      8  O   UNL     1       1.515  -1.358   0.490  1.00  0.00    +0.000 OA
ATOM      9  H   UNL     1       2.105  -1.007  -0.191  1.00  0.00    +0.000 HD
ENDBRANCH   3   8
BRANCH   5  10
ATOM     10  O   UNL     1       2.445  -2.975   3.656  1.00  0.00    +0.000 OA
ATOM     11  H   UNL     1       3.364  -2.962   3.958  1.00  0.00    +0.000 HD
ENDBRANCH   5  10
BRANCH   1  12
ATOM     12  C   UNL     1       5.284  -2.110   0.395  1.00  0.00    +0.000 C 
BRANCH  12  13
ATOM     13  O   UNL     1       5.288  -0.774  -0.115  1.00  0.00    +0.000 OA
ATOM     14  H   UNL     1       4.913  -0.121   0.492  1.00  0.00    +0.000 HD
ENDBRANCH  12  13
BRANCH  12  15
ATOM     15  C   UNL     1       4.712  -3.057  -0.663  1.00  0.00    +0.000 C 
BRANCH  15  16
ATOM     16  O   UNL     1       3.519  -2.493  -1.212  1.00  0.00    +0.000 OA
ATOM     17  H   UNL     1       3.677  -1.813  -1.881  1.00  0.00    +0.000 HD
ENDBRANCH  15  16
ENDBRANCH  12  15
ENDBRANCH   1  12
TORSDOF 7
ENDMDL
MODEL 3
REMARK VINA RESULT:    -5.276      1.311      2.116
REMARK INTER + INTRA:          -7.281
REMARK INTER:                  -6.804
REMARK INTRA:                  -0.478
REMARK UNBOUND:                -0.617
REMARK  Name = GZL
REMARK  7 active torsions:
REMARK  status: ('A' for Active; 'I' for Inactive)
REMARK    1  A    between atoms: C_1  and  C_2
REMARK    2  A    between atoms: C_1  and  O_6
REMARK    3  A    between atoms: C_2  and  C_3
REMARK    4  A    between atoms: C_2  and  O_7
REMARK    5  A    between atoms: C_4  and  O_9
REMARK    6  A    between atoms: C_5  and  O_11
REMARK    7  A    between atoms: C_10  and  O_12
REMARK                            x       y       z     vdW  Elec       q    Type
REMARK                         _______ _______ _______ _____ _____    ______ ____
ROOT
ATOM      1  C   UNL     1       3.809  -2.955   0.992  1.00  0.00    +0.000 C 
ATOM      2  C   UNL     1       3.898  -2.912  -0.546  1.00  0.00    +0.000 C 
ATOM      3  C   UNL     1       4.422  -1.488  -0.856  1.00  0.00    +0.000 C 
ATOM      4  O   UNL     1       4.198  -1.660   1.479  1.00  0.00    +0.000 OA
ATOM      5  C   UNL     1       5.076  -1.083   0.489  1.00  0.00    +0.000 C 
ENDROOT
BRANCH   2   6
ATOM      6  O   UNL     1       4.817  -3.897  -1.021  1.00  0.00    +0.000 OA
ATOM      7  H   UNL     1       4.396  -4.650  -1.459  1.00  0.00    +0.000 HD
ENDBRANCH   2   6
BRANCH   3   8
ATOM      8  O   UNL     1       3.344  -0.609  -1.184  1.00  0.00    +0.000 OA
ATOM      9  H   UNL     1       3.513   0.318  -0.966  1.00  0.00    +0.000 HD
ENDBRANCH   3   8
BRANCH   5  10
ATOM     10  O   UNL     1       6.389  -1.638   0.598  1.00  0.00    +0.000 OA
ATOM     11  H   UNL     1       6.615  -1.943   1.487  1.00  0.00    +0.000 HD
ENDBRANCH   5  10
BRANCH   1  12
ATOM     12  C   UNL     1       2.374  -3.264   1.421  1.00  0.00    +0.000 C 
BRANCH  12  13
ATOM     13  O   UNL     1       1.464  -2.750   0.446  1.00  0.00    +0.000 OA
ATOM     14  H   UNL     1       1.739  -2.905  -0.469  1.00  0.00    +0.000 HD
ENDBRANCH  12  13
BRANCH  12  15
ATOM     15  C   UNL     1       2.094  -2.607   2.774  1.00  0.00    +0.000 C 
BRANCH  15  16
ATOM     16  O   UNL     1       1.691  -1.251   2.572  1.00  0.00    +0.000 OA
ATOM     17  H   UNL     1       2.393  -0.604   2.729  1.00  0.00    +0.000 HD
ENDBRANCH  15  16
ENDBRANCH  12  15
ENDBRANCH   1  12
TORSDOF 7
ENDMDL
MODEL 4
REMARK VINA RESULT:    -4.963      1.311      2.783
REMARK INTER + INTRA:          -6.885
REMARK INTER:                  -6.549
REMARK INTRA:                  -0.336
REMARK UNBOUND:                -0.617
REMARK  Name = GZL
REMARK  7 active torsions:
REMARK  status: ('A' for Active; 'I' for Inactive)
REMARK    1  A    between atoms: C_1  and  C_2
REMARK    2  A    between atoms: C_1  and  O_6
REMARK    3  A    between atoms: C_2  and  C_3
REMARK    4  A    between atoms: C_2  and  O_7
REMARK    5  A    between atoms: C_4  and  O_9
REMARK    6  A    between atoms: C_5  and  O_11
REMARK    7  A    between atoms: C_10  and  O_12
REMARK                            x       y       z     vdW  Elec       q    Type
REMARK                         _______ _______ _______ _____ _____    ______ ____
ROOT
ATOM      1  C   UNL     1       3.828  -0.973   1.418  1.00  0.00    +0.000 C 
ATOM      2  C   UNL     1       4.898  -1.869   0.764  1.00  0.00    +0.000 C 
ATOM      3  C   UNL     1       4.138  -2.602  -0.369  1.00  0.00    +0.000 C 
ATOM      4  O   UNL     1       2.586  -1.228   0.742  1.00  0.00    +0.000 OA
ATOM      5  C   UNL     1       2.915  -1.677  -0.590  1.00  0.00    +0.000 C 
ENDROOT
BRANCH   2   6
ATOM      6  O   UNL     1       5.955  -1.073   0.224  1.00  0.00    +0.000 OA
ATOM      7  H   UNL     1       6.116  -0.252   0.709  1.00  0.00    +0.000 HD
ENDBRANCH   2   6
BRANCH   3   8
ATOM      8  O   UNL     1       3.725  -3.902   0.054  1.00  0.00    +0.000 OA
ATOM      9  H   UNL     1       3.878  -4.596  -0.602  1.00  0.00    +0.000 HD
ENDBRANCH   3   8
BRANCH   5  10
ATOM     10  O   UNL     1       3.266  -0.568  -1.422  1.00  0.00    +0.000 OA
ATOM     11  H   UNL     1       3.365   0.266  -0.944  1.00  0.00    +0.000 HD
ENDBRANCH   5  10
BRANCH   1  12
ATOM     12  C   UNL     1       3.695  -1.321   2.901  1.00  0.00    +0.000 C 
BRANCH  12  13
ATOM     13  O   UNL     1       4.995  -1.520   3.463  1.00  0.00    +0.000 OA
ATOM     14  H   UNL     1       5.501  -0.704   3.582  1.00  0.00    +0.000 HD
ENDBRANCH  12  13
BRANCH  12  15
ATOM     15  C   UNL     1       2.874  -2.603   3.053  1.00  0.00    +0.000 C 
BRANCH  15  16
ATOM     16  O   UNL     1       1.539  -2.271   3.443  1.00  0.00    +0.000 OA
ATOM     17  H   UNL     1       1.001  -1.902   2.730  1.00  0.00    +0.000 HD
ENDBRANCH  15  16
ENDBRANCH  12  15
ENDBRANCH   1  12
TORSDOF 7
ENDMDL
MODEL 5
REMARK VINA RESULT:    -4.627      1.364      3.571
REMARK INTER + INTRA:          -6.461
REMARK INTER:                  -5.875
REMARK INTRA:                  -0.587
REMARK UNBOUND:                -0.617
REMARK  Name = GZL
REMARK  7 active torsions:
REMARK  status: ('A' for Active; 'I' for Inactive)
REMARK    1  A    between atoms: C_1  and  C_2
REMARK    2  A    between atoms: C_1  and  O_6
REMARK    3  A    between atoms: C_2  and  C_3
REMARK    4  A    between atoms: C_2  and  O_7
REMARK    5  A    between atoms: C_4  and  O_9
REMARK    6  A    between atoms: C_5  and  O_11
REMARK    7  A    between atoms: C_10  and  O_12
REMARK                            x       y       z     vdW  Elec       q    Type
REMARK                         _______ _______ _______ _____ _____    ______ ____
ROOT
ATOM      1  C   UNL     1       3.548  -1.303   1.048  1.00  0.00    +0.000 C 
ATOM      2  C   UNL     1       2.237  -1.866   0.468  1.00  0.00    +0.000 C 
ATOM      3  C   UNL     1       2.089  -3.253   1.139  1.00  0.00    +0.000 C 
ATOM      4  O   UNL     1       4.097  -2.307   1.917  1.00  0.00    +0.000 OA
ATOM      5  C   UNL     1       2.991  -3.105   2.391  1.00  0.00    +0.000 C 
ENDROOT
BRANCH   2   6
ATOM      6  O   UNL     1       1.135  -1.024   0.812  1.00  0.00    +0.000 OA
ATOM      7  H   UNL     1       1.085  -0.209   0.293  1.00  0.00    +0.000 HD
ENDBRANCH   2   6
BRANCH   3   8
ATOM      8  O   UNL     1       2.573  -4.288   0.282  1.00  0.00    +0.000 OA
ATOM      9  H   UNL     1       2.862  -3.976  -0.586  1.00  0.00    +0.000 HD
ENDBRANCH   3   8
BRANCH   5  10
ATOM     10  O   UNL     1       2.292  -2.425   3.438  1.00  0.00    +0.000 OA
ATOM     11  H   UNL     1       2.643  -2.598   4.322  1.00  0.00    +0.000 HD
ENDBRANCH   5  10
BRANCH   1  12
ATOM     12  C   UNL     1       4.531  -1.001  -0.084  1.00  0.00    +0.000 C 
BRANCH  12  13
ATOM     13  O   UNL     1       3.807  -0.780  -1.297  1.00  0.00    +0.000 OA
ATOM     14  H   UNL     1       2.900  -0.471  -1.163  1.00  0.00    +0.000 HD
ENDBRANCH  12  13
BRANCH  12  15
ATOM     15  C   UNL     1       5.478  -2.189  -0.267  1.00  0.00    +0.000 C 
BRANCH  15  16
ATOM     16  O   UNL     1       4.858  -3.169  -1.102  1.00  0.00    +0.000 OA
ATOM     17  H   UNL     1       5.035  -4.081  -0.836  1.00  0.00    +0.000 HD
ENDBRANCH  15  16
ENDBRANCH  12  15
ENDBRANCH   1  12
TORSDOF 7
ENDMDL
MODEL 6
REMARK VINA RESULT:    -4.478     12.572     13.684
REMARK INTER + INTRA:          -6.272
REMARK INTER:                  -5.992
REMARK INTRA:                  -0.280
REMARK UNBOUND:                -0.617
REMARK  Name = GZL
REMARK  7 active torsions:
REMARK  status: ('A' for Active; 'I' for Inactive)
REMARK    1  A    between atoms: C_1  and  C_2
REMARK    2  A    between atoms: C_1  and  O_6
REMARK    3  A    between atoms: C_2  and  C_3
REMARK    4  A    between atoms: C_2  and  O_7
REMARK    5  A    between atoms: C_4  and  O_9
REMARK    6  A    between atoms: C_5  and  O_11
REMARK    7  A    between atoms: C_10  and  O_12
REMARK                            x       y       z     vdW  Elec       q    Type
REMARK                         _______ _______ _______ _____ _____    ______ ____
ROOT
ATOM      1  C   UNL     1      -8.278  -8.790   0.438  1.00  0.00    +0.000 C 
ATOM      2  C   UNL     1      -8.054  -8.767  -1.087  1.00  0.00    +0.000 C 
ATOM      3  C   UNL     1      -7.705 -10.234  -1.441  1.00  0.00    +0.000 C 
ATOM      4  O   UNL     1      -8.025 -10.131   0.887  1.00  0.00    +0.000 OA
ATOM      5  C   UNL     1      -8.287 -11.007  -0.230  1.00  0.00    +0.000 C 
ENDROOT
BRANCH   2   6
ATOM      6  O   UNL     1      -9.246  -8.361  -1.761  1.00  0.00    +0.000 OA
ATOM      7  H   UNL     1      -9.295  -8.648  -2.683  1.00  0.00    +0.000 HD
ENDBRANCH   2   6
BRANCH   3   8
ATOM      8  O   UNL     1      -6.291 -10.414  -1.528  1.00  0.00    +0.000 OA
ATOM      9  H   UNL     1      -5.866  -9.870  -2.206  1.00  0.00    +0.000 HD
ENDBRANCH   3   8
BRANCH   5  10
ATOM     10  O   UNL     1      -9.694 -11.210  -0.391  1.00  0.00    +0.000 OA
ATOM     11  H   UNL     1     -10.198 -11.134   0.430  1.00  0.00    +0.000 HD
ENDBRANCH   5  10
BRANCH   1  12
ATOM     12  C   UNL     1      -7.311  -7.820   1.119  1.00  0.00    +0.000 C 
BRANCH  12  13
ATOM     13  O   UNL     1      -6.016  -7.943   0.525  1.00  0.00    +0.000 OA
ATOM     14  H   UNL     1      -6.026  -7.951  -0.442  1.00  0.00    +0.000 HD
ENDBRANCH  12  13
BRANCH  12  15
ATOM     15  C   UNL     1      -7.221  -8.154   2.610  1.00  0.00    +0.000 C 
BRANCH  15  16
ATOM     16  O   UNL     1      -6.022  -7.596   3.152  1.00  0.00    +0.000 OA
ATOM     17  H   UNL     1      -5.980  -7.616   4.117  1.00  0.00    +0.000 HD
ENDBRANCH  15  16
ENDBRANCH  12  15
ENDBRANCH   1  12
TORSDOF 7
ENDMDL
MODEL 7
REMARK VINA RESULT:    -4.433      9.044     10.319
REMARK INTER + INTRA:          -6.215
REMARK INTER:                  -5.524
REMARK INTRA:                  -0.691
REMARK UNBOUND:                -0.617
REMARK  Name = GZL
REMARK  7 active torsions:
REMARK  status: ('A' for Active; 'I' for Inactive)
REMARK    1  A    between atoms: C_1  and  C_2
REMARK    2  A    between atoms: C_1  and  O_6
REMARK    3  A    between atoms: C_2  and  C_3
REMARK    4  A    between atoms: C_2  and  O_7
REMARK    5  A    between atoms: C_4  and  O_9
REMARK    6  A    between atoms: C_5  and  O_11
REMARK    7  A    between atoms: C_10  and  O_12
REMARK                            x       y       z     vdW  Elec       q    Type
REMARK                         _______ _______ _______ _____ _____    ______ ____
ROOT
ATOM      1  C   UNL     1      13.411   1.498   4.019  1.00  0.00    +0.000 C 
ATOM      2  C   UNL     1      12.581   0.257   4.401  1.00  0.00    +0.000 C 
ATOM      3  C   UNL     1      12.464  -0.543   3.080  1.00  0.00    +0.000 C 
ATOM      4  O   UNL     1      13.680   1.414   2.610  1.00  0.00    +0.000 OA
ATOM      5  C   UNL     1      13.653   0.015   2.257  1.00  0.00    +0.000 C 
ENDROOT
BRANCH   2   6
ATOM      6  O   UNL     1      13.262  -0.513   5.394  1.00  0.00    +0.000 OA
ATOM      7  H   UNL     1      14.009  -1.023   5.052  1.00  0.00    +0.000 HD
ENDBRANCH   2   6
BRANCH   3   8
ATOM      8  O   UNL     1      11.222  -0.272   2.429  1.00  0.00    +0.000 OA
ATOM      9  H   UNL     1      10.919  -0.984   1.848  1.00  0.00    +0.000 HD
ENDBRANCH   3   8
BRANCH   5  10
ATOM     10  O   UNL     1      14.873  -0.625   2.639  1.00  0.00    +0.000 OA
ATOM     11  H   UNL     1      15.571  -0.571   1.972  1.00  0.00    +0.000 HD
ENDBRANCH   5  10
BRANCH   1  12
ATOM     12  C   UNL     1      12.616   2.769   4.322  1.00  0.00    +0.000 C 
BRANCH  12  13
ATOM     13  O   UNL     1      11.369   2.418   4.927  1.00  0.00    +0.000 OA
ATOM     14  H   UNL     1      10.766   1.942   4.337  1.00  0.00    +0.000 HD
ENDBRANCH  12  13
BRANCH  12  15
ATOM     15  C   UNL     1      12.355   3.530   3.021  1.00  0.00    +0.000 C 
BRANCH  15  16
ATOM     16  O   UNL     1      11.401   2.814   2.233  1.00  0.00    +0.000 OA
ATOM     17  H   UNL     1      11.781   2.370   1.463  1.00  0.00    +0.000 HD
ENDBRANCH  15  16
ENDBRANCH  12  15
ENDBRANCH   1  12
TORSDOF 7
ENDMDL
MODEL 8
REMARK VINA RESULT:    -4.140      9.145     10.393
REMARK INTER + INTRA:          -5.846
REMARK INTER:                  -5.128
REMARK INTRA:                  -0.718
REMARK UNBOUND:                -0.617
REMARK  Name = GZL
REMARK  7 active torsions:
REMARK  status: ('A' for Active; 'I' for Inactive)
REMARK    1  A    between atoms: C_1  and  C_2
REMARK    2  A    between atoms: C_1  and  O_6
REMARK    3  A    between atoms: C_2  and  C_3
REMARK    4  A    between atoms: C_2  and  O_7
REMARK    5  A    between atoms: C_4  and  O_9
REMARK    6  A    between atoms: C_5  and  O_11
REMARK    7  A    between atoms: C_10  and  O_12
REMARK                            x       y       z     vdW  Elec       q    Type
REMARK                         _______ _______ _______ _____ _____    ______ ____
ROOT
ATOM      1  C   UNL     1      12.439   1.442   3.570  1.00  0.00    +0.000 C 
ATOM      2  C   UNL     1      12.178   0.364   2.501  1.00  0.00    +0.000 C 
ATOM      3  C   UNL     1      13.559  -0.305   2.291  1.00  0.00    +0.000 C 
ATOM      4  O   UNL     1      13.842   1.405   3.882  1.00  0.00    +0.000 OA
ATOM      5  C   UNL     1      14.300   0.065   3.601  1.00  0.00    +0.000 C 
ENDROOT
BRANCH   2   6
ATOM      6  O   UNL     1      11.227  -0.591   2.975  1.00  0.00    +0.000 OA
ATOM      7  H   UNL     1      10.307  -0.354   2.794  1.00  0.00    +0.000 HD
ENDBRANCH   2   6
BRANCH   3   8
ATOM      8  O   UNL     1      14.226   0.248   1.155  1.00  0.00    +0.000 OA
ATOM      9  H   UNL     1      14.850  -0.358   0.732  1.00  0.00    +0.000 HD
ENDBRANCH   3   8
BRANCH   5  10
ATOM     10  O   UNL     1      13.931  -0.825   4.658  1.00  0.00    +0.000 OA
ATOM     11  H   UNL     1      14.682  -1.196   5.140  1.00  0.00    +0.000 HD
ENDBRANCH   5  10
BRANCH   1  12
ATOM     12  C   UNL     1      12.064   2.820   3.022  1.00  0.00    +0.000 C 
BRANCH  12  13
ATOM     13  O   UNL     1      11.277   2.664   1.839  1.00  0.00    +0.000 OA
ATOM     14  H   UNL     1      11.797   2.615   1.024  1.00  0.00    +0.000 HD
ENDBRANCH  12  13
BRANCH  12  15
ATOM     15  C   UNL     1      13.337   3.599   2.687  1.00  0.00    +0.000 C 
BRANCH  15  16
ATOM     16  O   UNL     1      13.826   3.188   1.409  1.00  0.00    +0.000 OA
ATOM     17  H   UNL     1      14.789   3.212   1.329  1.00  0.00    +0.000 HD
ENDBRANCH  15  16
ENDBRANCH  12  15
ENDBRANCH   1  12
TORSDOF 7
ENDMDL
MODEL 9
REMARK VINA RESULT:    -4.074      9.525     10.818
REMARK INTER + INTRA:          -5.762
REMARK INTER:                  -5.021
REMARK INTRA:                  -0.741
REMARK UNBOUND:                -0.617
REMARK  Name = GZL
REMARK  7 active torsions:
REMARK  status: ('A' for Active; 'I' for Inactive)
REMARK    1  A    between atoms: C_1  and  C_2
REMARK    2  A    between atoms: C_1  and  O_6
REMARK    3  A    between atoms: C_2  and  C_3
REMARK    4  A    between atoms: C_2  and  O_7
REMARK    5  A    between atoms: C_4  and  O_9
REMARK    6  A    between atoms: C_5  and  O_11
REMARK    7  A    between atoms: C_10  and  O_12
REMARK                            x       y       z     vdW  Elec       q    Type
REMARK                         _______ _______ _______ _____ _____    ______ ____
ROOT
ATOM      1  C   UNL     1      14.200   0.860   3.600  1.00  0.00    +0.000 C 
ATOM      2  C   UNL     1      13.801  -0.157   2.513  1.00  0.00    +0.000 C 
ATOM      3  C   UNL     1      12.253  -0.124   2.512  1.00  0.00    +0.000 C 
ATOM      4  O   UNL     1      12.986   1.366   4.178  1.00  0.00    +0.000 OA
ATOM      5  C   UNL     1      11.958   1.247   3.172  1.00  0.00    +0.000 C 
ENDROOT
BRANCH   2   6
ATOM      6  O   UNL     1      14.310   0.246   1.240  1.00  0.00    +0.000 OA
ATOM      7  H   UNL     1      15.270   0.159   1.155  1.00  0.00    +0.000 HD
ENDBRANCH   2   6
BRANCH   3   8
ATOM      8  O   UNL     1      11.720  -1.192   3.297  1.00  0.00    +0.000 OA
ATOM      9  H   UNL     1      10.766  -1.314   3.199  1.00  0.00    +0.000 HD
ENDBRANCH   3   8
BRANCH   5  10
ATOM     10  O   UNL     1      12.069   2.302   2.212  1.00  0.00    +0.000 OA
ATOM     11  H   UNL     1      11.220   2.612   1.869  1.00  0.00    +0.000 HD
ENDBRANCH   5  10
BRANCH   1  12
ATOM     12  C   UNL     1      15.040   0.169   4.675  1.00  0.00    +0.000 C 
BRANCH  12  13
ATOM     13  O   UNL     1      15.376  -1.152   4.241  1.00  0.00    +0.000 OA
ATOM     14  H   UNL     1      15.829  -1.182   3.387  1.00  0.00    +0.000 HD
ENDBRANCH  12  13
BRANCH  12  15
ATOM     15  C   UNL     1      14.239   0.089   5.976  1.00  0.00    +0.000 C 
BRANCH  15  16
ATOM     16  O   UNL     1      13.270  -0.957   5.875  1.00  0.00    +0.000 OA
ATOM     17  H   UNL     1      13.594  -1.752   5.431  1.00  0.00    +0.000 HD
ENDBRANCH  15  16
ENDBRANCH  12  15
ENDBRANCH   1  12
TORSDOF 7
ENDMDL
