MODEL 1
REMARK VINA RESULT:    -5.725      0.000      0.000
REMARK INTER + INTRA:          -7.448
REMARK INTER:                  -7.232
REMARK INTRA:                  -0.216
REMARK UNBOUND:                -0.216
REMARK  Name = FRU
REMARK  7 active torsions:
REMARK  status: ('A' for Active; 'I' for Inactive)
REMARK    1  A    between atoms: C_1  and  C_2
REMARK    2  A    between atoms: C_1  and  O_7
REMARK    3  A    between atoms: C_2  and  O_8
REMARK    4  A    between atoms: C_3  and  O_9
REMARK    5  A    between atoms: C_4  and  O_10
REMARK    6  A    between atoms: C_5  and  C_6
REMARK    7  A    between atoms: C_6  and  O_12
REMARK                            x       y       z     vdW  Elec       q    Type
REMARK                         _______ _______ _______ _____ _____    ______ ____
ROOT
ATOM      1  C   UNL     1       4.064  -1.315   2.350  1.00  0.00    +0.000 C 
ATOM      2  C   UNL     1       2.797  -2.125   2.020  1.00  0.00    +0.000 C 
ATOM      3  C   UNL     1       3.043  -2.649   0.583  1.00  0.00    +0.000 C 
ATOM      4  C   UNL     1       4.584  -2.549   0.462  1.00  0.00    +0.000 C 
ATOM      5  O   UNL     1       4.904  -1.342   1.186  1.00  0.00    +0.000 OA
ENDROOT
BRANCH   1   6
ATOM      6  O   UNL     1       3.710   0.034   2.663  1.00  0.00    +0.000 OA
ATOM      7  H   UNL     1       3.086   0.323   1.983  1.00  0.00    +0.000 HD
ENDBRANCH   1   6
BRANCH   2   8
ATOM      8  O   UNL     1       1.641  -1.287   2.060  1.00  0.00    +0.000 OA
ATOM      9  H   UNL     1       1.054  -1.653   2.735  1.00  0.00    +0.000 HD
ENDBRANCH   2   8
BRANCH   3  10
ATOM     10  O   UNL     1       2.603  -4.002   0.451  1.00  0.00    +0.000 OA
ATOM     11  H   UNL     1       2.992  -4.344  -0.366  1.00  0.00    +0.000 HD
ENDBRANCH   3  10
BRANCH   1  12
ATOM     12  C   UNL     1       4.796  -1.947   3.535  1.00  0.00    +0.000 C 
BRANCH  12  13
ATOM     13  O   UNL     1       5.484  -0.931   4.268  1.00  0.00    +0.000 OA
ATOM     14  H   UNL     1       6.426  -1.045   4.086  1.00  0.00    +0.000 HD
ENDBRANCH  12  13
ENDBRANCH   1  12
BRANCH   4  15
ATOM     15  C   UNL     1       5.004  -2.428  -1.003  1.00  0.00    +0.000 C 
BRANCH  15  16
ATOM     16  O   UNL     1       5.025  -3.725  -1.602  1.00  0.00    +0.000 OA
ATOM     17  H   UNL     1       4.250  -4.199  -1.270  1.00  0.00    +0.000 HD
ENDBRANCH  15  16
ENDBRANCH   4  15
TORSDOF 7
ENDMDL
MODEL 2
REMARK VINA RESULT:    -5.249      1.264      3.914
REMARK INTER + INTRA:          -6.846
REMARK INTER:                  -6.702
REMARK INTRA:                  -0.144
REMARK UNBOUND:                -0.216
REMARK  Name = FRU
REMARK  7 active torsions:
REMARK  status: ('A' for Active; 'I' for Inactive)
REMARK    1  A    between atoms: C_1  and  C_2
REMARK    2  A    between atoms: C_1  and  O_7
REMARK    3  A    between atoms: C_2  and  O_8
REMARK    4  A    between atoms: C_3  and  O_9
REMARK    5  A    between atoms: C_4  and  O_10
REMARK    6  A    between atoms: C_5  and  C_6
REMARK    7  A    between atoms: C_6  and  O_12
REMARK                            x       y       z     vdW  Elec       q    Type
REMARK                         _______ _______ _______ _____ _____    ______ ____
ROOT
ATOM      1  C   UNL     1       4.145  -2.165   0.027  1.00  0.00    +0.000 C 
ATOM      2  C   UNL     1       2.895  -2.701   0.748  1.00  0.00    +0.000 C 
ATOM      3  C   UNL     1       3.256  -2.615   2.253  1.00  0.00    +0.000 C 
ATOM      4  C   UNL     1       4.402  -1.572   2.250  1.00  0.00    +0.000 C 
ATOM      5  O   UNL     1       5.124  -1.864   1.035  1.00  0.00    +0.000 OA
ENDROOT
BRANCH   1   6
ATOM      6  O   UNL     1       4.655  -3.158  -0.864  1.00  0.00    +0.000 OA
ATOM      7  H   UNL     1       4.992  -3.880  -0.315  1.00  0.00    +0.000 HD
ENDBRANCH   1   6
BRANCH   2   8
ATOM      8  O   UNL     1       2.638  -4.054   0.368  1.00  0.00    +0.000 OA
ATOM      9  H   UNL     1       2.657  -4.580   1.179  1.00  0.00    +0.000 HD
ENDBRANCH   2   8
BRANCH   3  10
ATOM     10  O   UNL     1       2.142  -2.153   3.019  1.00  0.00    +0.000 OA
ATOM     11  H   UNL     1       1.432  -2.800   2.897  1.00  0.00    +0.000 HD
ENDBRANCH   3  10
BRANCH   1  12
ATOM     12  C   UNL     1       3.796  -0.897  -0.754  1.00  0.00    +0.000 C 
BRANCH  12  13
ATOM     13  O   UNL     1       2.394  -0.880  -1.033  1.00  0.00    +0.000 OA
ATOM     14  H   UNL     1       1.964  -0.461  -0.276  1.00  0.00    +0.000 HD
ENDBRANCH  12  13
ENDBRANCH   1  12
BRANCH   4  15
ATOM     15  C   UNL     1       5.303  -1.759   3.471  1.00  0.00    +0.000 C 
BRANCH  15  16
ATOM     16  O   UNL     1       5.283  -0.571   4.265  1.00  0.00    +0.000 OA
ATOM     17  H   UNL     1       4.894  -0.809   5.116  1.00  0.00    +0.000 HD
ENDBRANCH  15  16
ENDBRANCH   4  15
TORSDOF 7
ENDMDL
MODEL 3
REMARK VINA RESULT:    -5.054      1.737      2.335
REMARK INTER + INTRA:          -6.599
REMARK INTER:                  -6.431
REMARK INTRA:                  -0.169
REMARK UNBOUND:                -0.216
REMARK  Name = FRU
REMARK  7 active torsions:
REMARK  status: ('A' for Active; 'I' for Inactive)
REMARK    1  A    between atoms: C_1  and  C_2
REMARK    2  A    between atoms: C_1  and  O_7
REMARK    3  A    between atoms: C_2  and  O_8
REMARK    4  A    between atoms: C_3  and  O_9
REMARK    5  A    between atoms: C_4  and  O_10
REMARK    6  A    between atoms: C_5  and  C_6
REMARK    7  A    between atoms: C_6  and  O_12
REMARK                            x       y       z     vdW  Elec       q    Type
REMARK                         _______ _______ _______ _____ _____    ______ ____
ROOT
ATOM      1  C   UNL     1       2.509  -1.992   2.114  1.00  0.00    +0.000 C 
ATOM      2  C   UNL     1       2.175  -2.044   0.611  1.00  0.00    +0.000 C 
ATOM      3  C   UNL     1       3.553  -1.929  -0.090  1.00  0.00    +0.000 C 
ATOM      4  C   UNL     1       4.524  -2.362   1.037  1.00  0.00    +0.000 C 
ATOM      5  O   UNL     1       3.929  -1.810   2.230  1.00  0.00    +0.000 OA
ENDROOT
BRANCH   1   6
ATOM      6  O   UNL     1       1.826  -0.896   2.725  1.00  0.00    +0.000 OA
ATOM      7  H   UNL     1       1.450  -0.367   2.008  1.00  0.00    +0.000 HD
ENDBRANCH   1   6
BRANCH   2   8
ATOM      8  O   UNL     1       1.332  -0.950   0.247  1.00  0.00    +0.000 OA
ATOM      9  H   UNL     1       1.899  -0.170   0.179  1.00  0.00    +0.000 HD
ENDBRANCH   2   8
BRANCH   3  10
ATOM     10  O   UNL     1       3.632  -2.816  -1.207  1.00  0.00    +0.000 OA
ATOM     11  H   UNL     1       3.535  -2.273  -2.002  1.00  0.00    +0.000 HD
ENDBRANCH   3  10
BRANCH   1  12
ATOM     12  C   UNL     1       2.095  -3.302   2.787  1.00  0.00    +0.000 C 
BRANCH  12  13
ATOM     13  O   UNL     1       2.151  -3.146   4.206  1.00  0.00    +0.000 OA
ATOM     14  H   UNL     1       2.554  -3.950   4.560  1.00  0.00    +0.000 HD
ENDBRANCH  12  13
ENDBRANCH   1  12
BRANCH   4  15
ATOM     15  C   UNL     1       5.915  -1.770   0.805  1.00  0.00    +0.000 C 
BRANCH  15  16
ATOM     16  O   UNL     1       5.807  -0.600  -0.009  1.00  0.00    +0.000 OA
ATOM     17  H   UNL     1       5.209  -0.820  -0.736  1.00  0.00    +0.000 HD
ENDBRANCH  15  16
ENDBRANCH   4  15
TORSDOF 7
ENDMDL
MODEL 4
REMARK VINA RESULT:    -4.991      1.369      4.246
REMARK INTER + INTRA:          -6.520
REMARK INTER:                  -6.257
REMARK INTRA:                  -0.263
REMARK UNBOUND:                -0.216
REMARK  Name = FRU
REMARK  7 active torsions:
REMARK  status: ('A' for Active; 'I' for Inactive)
REMARK    1  A    between atoms: C_1  and  C_2
REMARK    2  A    between atoms: C_1  and  O_7
REMARK    3  A    between atoms: C_2  and  O_8
REMARK    4  A    between atoms: C_3  and  O_9
REMARK    5  A    between atoms: C_4  and  O_10
REMARK    6  A    between atoms: C_5  and  C_6
REMARK    7  A    between atoms: C_6  and  O_12
REMARK                            x       y       z     vdW  Elec       q    Type
REMARK                         _______ _______ _______ _____ _____    ______ ____
ROOT
ATOM      1  C   UNL     1       3.895  -2.215  -0.239  1.00  0.00    +0.000 C 
ATOM      2  C   UNL     1       4.878  -1.660   0.809  1.00  0.00    +0.000 C 
ATOM      3  C   UNL     1       3.992  -1.365   2.045  1.00  0.00    +0.000 C 
ATOM      4  C   UNL     1       2.754  -2.256   1.775  1.00  0.00    +0.000 C 
ATOM      5  O   UNL     1       2.583  -2.176   0.344  1.00  0.00    +0.000 OA
ENDROOT
BRANCH   1   6
ATOM      6  O   UNL     1       3.929  -1.403  -1.414  1.00  0.00    +0.000 OA
ATOM      7  H   UNL     1       3.105  -1.569  -1.892  1.00  0.00    +0.000 HD
ENDBRANCH   1   6
BRANCH   2   8
ATOM      8  O   UNL     1       5.496  -0.463   0.333  1.00  0.00    +0.000 OA
ATOM      9  H   UNL     1       5.223   0.247   0.929  1.00  0.00    +0.000 HD
ENDBRANCH   2   8
BRANCH   3  10
ATOM     10  O   UNL     1       4.652  -1.752   3.251  1.00  0.00    +0.000 OA
ATOM     11  H   UNL     1       4.536  -2.709   3.338  1.00  0.00    +0.000 HD
ENDBRANCH   3  10
BRANCH   1  12
ATOM     12  C   UNL     1       4.264  -3.656  -0.592  1.00  0.00    +0.000 C 
BRANCH  12  13
ATOM     13  O   UNL     1       5.084  -3.664  -1.763  1.00  0.00    +0.000 OA
ATOM     14  H   UNL     1       5.574  -4.497  -1.755  1.00  0.00    +0.000 HD
ENDBRANCH  12  13
ENDBRANCH   1  12
BRANCH   4  15
ATOM     15  C   UNL     1       1.524  -1.704   2.497  1.00  0.00    +0.000 C 
BRANCH  15  16
ATOM     16  O   UNL     1       1.823  -0.411   3.028  1.00  0.00    +0.000 OA
ATOM     17  H   UNL     1       2.289  -0.552   3.863  1.00  0.00    +0.000 HD
ENDBRANCH  15  16
ENDBRANCH   4  15
TORSDOF 7
ENDMDL
MODEL 5
REMARK VINA RESULT:    -4.911      1.244      2.755
REMARK INTER + INTRA:          -6.419
REMARK INTER:                  -6.107
REMARK INTRA:                  -0.312
REMARK UNBOUND:                -0.216
REMARK  Name = FRU
REMARK  7 active torsions:
REMARK  status: ('A' for Active; 'I' for Inactive)
REMARK    1  A    between atoms: C_1  and  C_2
REMARK    2  A    between atoms: C_1  and  O_7
REMARK    3  A    between atoms: C_2  and  O_8
REMARK    4  A    between atoms: C_3  and  O_9
REMARK    5  A    between atoms: C_4  and  O_10
REMARK    6  A    between atoms: C_5  and  C_6
REMARK    7  A    between atoms: C_6  and  O_12
REMARK                            x       y       z     vdW  Elec       q    Type
REMARK                         _______ _______ _______ _____ _____    ______ ____
ROOT
ATOM      1  C   UNL     1       2.873  -2.304   2.253  1.00  0.00    +0.000 C 
ATOM      2  C   UNL     1       4.065  -1.330   2.213  1.00  0.00    +0.000 C 
ATOM      3  C   UNL     1       4.877  -1.770   0.968  1.00  0.00    +0.000 C 
ATOM      4  C   UNL     1       3.818  -2.555   0.155  1.00  0.00    +0.000 C 
ATOM      5  O   UNL     1       3.041  -3.229   1.167  1.00  0.00    +0.000 OA
ENDROOT
BRANCH   1   6
ATOM      6  O   UNL     1       2.865  -3.009   3.496  1.00  0.00    +0.000 OA
ATOM      7  H   UNL     1       3.674  -3.538   3.523  1.00  0.00    +0.000 HD
ENDBRANCH   1   6
BRANCH   2   8
ATOM      8  O   UNL     1       4.854  -1.452   3.398  1.00  0.00    +0.000 OA
ATOM      9  H   UNL     1       4.500  -2.203   3.893  1.00  0.00    +0.000 HD
ENDBRANCH   2   8
BRANCH   3  10
ATOM     10  O   UNL     1       5.349  -0.636   0.240  1.00  0.00    +0.000 OA
ATOM     11  H   UNL     1       4.568  -0.174  -0.096  1.00  0.00    +0.000 HD
ENDBRANCH   3  10
BRANCH   1  12
ATOM     12  C   UNL     1       1.563  -1.535   2.083  1.00  0.00    +0.000 C 
BRANCH  12  13
ATOM     13  O   UNL     1       1.542  -0.423   2.982  1.00  0.00    +0.000 OA
ATOM     14  H   UNL     1       1.746   0.363   2.458  1.00  0.00    +0.000 HD
ENDBRANCH  12  13
ENDBRANCH   1  12
BRANCH   4  15
ATOM     15  C   UNL     1       4.492  -3.568  -0.772  1.00  0.00    +0.000 C 
BRANCH  15  16
ATOM     16  O   UNL     1       5.485  -2.907  -1.559  1.00  0.00    +0.000 OA
ATOM     17  H   UNL     1       6.065  -2.439  -0.943  1.00  0.00    +0.000 HD
ENDBRANCH  15  16
ENDBRANCH   4  15
TORSDOF 7
ENDMDL
MODEL 6
REMARK VINA RESULT:    -4.789      1.816      3.697
REMARK INTER + INTRA:          -6.265
REMARK INTER:                  -5.982
REMARK INTRA:                  -0.283
REMARK UNBOUND:                -0.216
REMARK  Name = FRU
REMARK  7 active torsions:
REMARK  status: ('A' for Active; 'I' for Inactive)
REMARK    1  A    between atoms: C_1  and  C_2
REMARK    2  A    between atoms: C_1  and  O_7
REMARK    3  A    between atoms: C_2  and  O_8
REMARK    4  A    between atoms: C_3  and  O_9
REMARK    5  A    between atoms: C_4  and  O_10
REMARK    6  A    between atoms: C_5  and  C_6
REMARK    7  A    between atoms: C_6  and  O_12
REMARK                            x       y       z     vdW  Elec       q    Type
REMARK                         _______ _______ _______ _____ _____    ______ ____
ROOT
ATOM      1  C   UNL     1       4.314  -2.384   0.165  1.00  0.00    +0.000 C 
ATOM      2  C   UNL     1       2.978  -1.758  -0.274  1.00  0.00    +0.000 C 
ATOM      3  C   UNL     1       2.023  -2.021   0.918  1.00  0.00    +0.000 C 
ATOM      4  C   UNL     1       3.018  -2.268   2.079  1.00  0.00    +0.000 C 
ATOM      5  O   UNL     1       4.102  -2.986   1.452  1.00  0.00    +0.000 OA
ENDROOT
BRANCH   1   6
ATOM      6  O   UNL     1       4.715  -3.381  -0.778  1.00  0.00    +0.000 OA
ATOM      7  H   UNL     1       5.682  -3.370  -0.801  1.00  0.00    +0.000 HD
ENDBRANCH   1   6
BRANCH   2   8
ATOM      8  O   UNL     1       2.491  -2.391  -1.459  1.00  0.00    +0.000 OA
ATOM      9  H   UNL     1       2.037  -3.197  -1.179  1.00  0.00    +0.000 HD
ENDBRANCH   2   8
BRANCH   3  10
ATOM     10  O   UNL     1       1.203  -0.881   1.176  1.00  0.00    +0.000 OA
ATOM     11  H   UNL     1       0.759  -1.042   2.021  1.00  0.00    +0.000 HD
ENDBRANCH   3  10
BRANCH   1  12
ATOM     12  C   UNL     1       5.391  -1.303   0.266  1.00  0.00    +0.000 C 
BRANCH  12  13
ATOM     13  O   UNL     1       6.368  -1.693   1.233  1.00  0.00    +0.000 OA
ATOM     14  H   UNL     1       6.410  -2.658   1.215  1.00  0.00    +0.000 HD
ENDBRANCH  12  13
ENDBRANCH   1  12
BRANCH   4  15
ATOM     15  C   UNL     1       2.371  -3.118   3.173  1.00  0.00    +0.000 C 
BRANCH  15  16
ATOM     16  O   UNL     1       1.303  -2.385   3.778  1.00  0.00    +0.000 OA
ATOM     17  H   UNL     1       0.792  -1.990   3.058  1.00  0.00    +0.000 HD
ENDBRANCH  15  16
ENDBRANCH   4  15
TORSDOF 7
ENDMDL
MODEL 7
REMARK VINA RESULT:    -4.714      8.476      9.578
REMARK INTER + INTRA:          -6.171
REMARK INTER:                  -5.837
REMARK INTRA:                  -0.334
REMARK UNBOUND:                -0.216
REMARK  Name = FRU
REMARK  7 active torsions:
REMARK  status: ('A' for Active; 'I' for Inactive)
REMARK    1  A    between atoms: C_1  and  C_2
REMARK    2  A    between atoms: C_1  and  O_7
REMARK    3  A    between atoms: C_2  and  O_8
REMARK    4  A    between atoms: C_3  and  O_9
REMARK    5  A    between atoms: C_4  and  O_10
REMARK    6  A    between atoms: C_5  and  C_6
REMARK    7  A    between atoms: C_6  and  O_12
REMARK                            x       y       z     vdW  Elec       q    Type
REMARK                         _______ _______ _______ _____ _____    ______ ____
ROOT
ATOM      1  C   UNL     1      12.730  -0.507   5.057  1.00  0.00    +0.000 C 
ATOM      2  C   UNL     1      12.467  -1.151   3.684  1.00  0.00    +0.000 C 
ATOM      3  C   UNL     1      12.132   0.047   2.759  1.00  0.00    +0.000 C 
ATOM      4  C   UNL     1      12.752   1.236   3.534  1.00  0.00    +0.000 C 
ATOM      5  O   UNL     1      12.507   0.905   4.917  1.00  0.00    +0.000 OA
ENDROOT
BRANCH   1   6
ATOM      6  O   UNL     1      11.831  -1.047   6.027  1.00  0.00    +0.000 OA
ATOM      7  H   UNL     1      12.372  -1.370   6.761  1.00  0.00    +0.000 HD
ENDBRANCH   1   6
BRANCH   2   8
ATOM      8  O   UNL     1      11.363  -2.055   3.757  1.00  0.00    +0.000 OA
ATOM      9  H   UNL     1      11.733  -2.948   3.757  1.00  0.00    +0.000 HD
ENDBRANCH   2   8
BRANCH   3  10
ATOM     10  O   UNL     1      12.746  -0.110   1.479  1.00  0.00    +0.000 OA
ATOM     11  H   UNL     1      12.138  -0.636   0.939  1.00  0.00    +0.000 HD
ENDBRANCH   3  10
BRANCH   1  12
ATOM     12  C   UNL     1      14.175  -0.765   5.488  1.00  0.00    +0.000 C 
BRANCH  12  13
ATOM     13  O   UNL     1      14.918  -1.279   4.381  1.00  0.00    +0.000 OA
ATOM     14  H   UNL     1      15.806  -0.905   4.444  1.00  0.00    +0.000 HD
ENDBRANCH  12  13
ENDBRANCH   1  12
BRANCH   4  15
ATOM     15  C   UNL     1      12.056   2.545   3.161  1.00  0.00    +0.000 C 
BRANCH  15  16
ATOM     16  O   UNL     1      11.303   2.359   1.960  1.00  0.00    +0.000 OA
ATOM     17  H   UNL     1      11.766   1.688   1.440  1.00  0.00    +0.000 HD
ENDBRANCH  15  16
ENDBRANCH   4  15
TORSDOF 7
ENDMDL
MODEL 8
REMARK VINA RESULT:    -4.603     12.711     14.361
REMARK INTER + INTRA:          -6.030
REMARK INTER:                  -5.668
REMARK INTRA:                  -0.362
REMARK UNBOUND:                -0.216
REMARK  Name = FRU
REMARK  7 active torsions:
REMARK  status: ('A' for Active; 'I' for Inactive)
REMARK    1  A    between atoms: C_1  and  C_2
REMARK    2  A    between atoms: C_1  and  O_7
REMARK    3  A    between atoms: C_2  and  O_8
REMARK    4  A    between atoms: C_3  and  O_9
REMARK    5  A    between atoms: C_4  and  O_10
REMARK    6  A    between atoms: C_5  and  C_6
REMARK    7  A    between atoms: C_6  and  O_12
REMARK                            x       y       z     vdW  Elec       q    Type
REMARK                         _______ _______ _______ _____ _____    ______ ____
ROOT
ATOM      1  C   UNL     1      -8.064  -9.111   0.871  1.00  0.00    +0.000 C 
ATOM      2  C   UNL     1      -7.248  -8.711  -0.372  1.00  0.00    +0.000 C 
ATOM      3  C   UNL     1      -7.016 -10.047  -1.122  1.00  0.00    +0.000 C 
ATOM      4  C   UNL     1      -8.142 -10.941  -0.545  1.00  0.00    +0.000 C 
ATOM      5  O   UNL     1      -8.219 -10.538   0.839  1.00  0.00    +0.000 OA
ENDROOT
BRANCH   1   6
ATOM      6  O   UNL     1      -7.365  -8.724   2.055  1.00  0.00    +0.000 OA
ATOM      7  H   UNL     1      -7.644  -9.330   2.755  1.00  0.00    +0.000 HD
ENDBRANCH   1   6
BRANCH   2   8
ATOM      8  O   UNL     1      -6.003  -8.126   0.012  1.00  0.00    +0.000 OA
ATOM      9  H   UNL     1      -5.306  -8.665  -0.386  1.00  0.00    +0.000 HD
ENDBRANCH   2   8
BRANCH   3  10
ATOM     10  O   UNL     1      -7.168  -9.874  -2.532  1.00  0.00    +0.000 OA
ATOM     11  H   UNL     1      -7.613 -10.666  -2.865  1.00  0.00    +0.000 HD
ENDBRANCH   3  10
BRANCH   1  12
ATOM     12  C   UNL     1      -9.437  -8.437   0.835  1.00  0.00    +0.000 C 
BRANCH  12  13
ATOM     13  O   UNL     1      -9.566  -7.684  -0.373  1.00  0.00    +0.000 OA
ATOM     14  H   UNL     1      -8.934  -8.053  -1.002  1.00  0.00    +0.000 HD
ENDBRANCH  12  13
ENDBRANCH   1  12
BRANCH   4  15
ATOM     15  C   UNL     1      -7.768 -12.419  -0.656  1.00  0.00    +0.000 C 
BRANCH  15  16
ATOM     16  O   UNL     1      -6.433 -12.537  -1.155  1.00  0.00    +0.000 OA
ATOM     17  H   UNL     1      -6.037 -13.303  -0.718  1.00  0.00    +0.000 HD
ENDBRANCH  15  16
ENDBRANCH   4  15
TORSDOF 7
ENDMDL
MODEL 9
REMARK VINA RESULT:    -4.448      9.506     11.114
REMARK INTER + INTRA:          -5.834
REMARK INTER:                  -5.488
REMARK INTRA:                  -0.347
REMARK UNBOUND:                -0.216
REMARK  Name = FRU
REMARK  7 active torsions:
REMARK  status: ('A' for Active; 'I' for Inactive)
REMARK    1  A    between atoms: C_1  and  C_2
REMARK    2  A    between atoms: C_1  and  O_7
REMARK    3  A    between atoms: C_2  and  O_8
REMARK    4  A    between atoms: C_3  and  O_9
REMARK    5  A    between atoms: C_4  and  O_10
REMARK    6  A    between atoms: C_5  and  C_6
REMARK    7  A    between atoms: C_6  and  O_12
REMARK                            x       y       z     vdW  Elec       q    Type
REMARK                         _______ _______ _______ _____ _____    ______ ____
ROOT
ATOM      1  C   UNL     1      14.976   1.812   2.371  1.00  0.00    +0.000 C 
ATOM      2  C   UNL     1      14.256   0.526   1.923  1.00  0.00    +0.000 C 
ATOM      3  C   UNL     1      12.931   0.530   2.727  1.00  0.00    +0.000 C 
ATOM      4  C   UNL     1      12.793   2.024   3.113  1.00  0.00    +0.000 C 
ATOM      5  O   UNL     1      14.153   2.437   3.369  1.00  0.00    +0.000 OA
ENDROOT
BRANCH   1   6
ATOM      6  O   UNL     1      16.251   1.485   2.928  1.00  0.00    +0.000 OA
ATOM      7  H   UNL     1      16.229   0.543   3.142  1.00  0.00    +0.000 HD
ENDBRANCH   1   6
BRANCH   2   8
ATOM      8  O   UNL     1      15.038  -0.625   2.246  1.00  0.00    +0.000 OA
ATOM      9  H   UNL     1      14.995  -0.732   3.205  1.00  0.00    +0.000 HD
ENDBRANCH   2   8
BRANCH   3  10
ATOM     10  O   UNL     1      11.839   0.106   1.911  1.00  0.00    +0.000 OA
ATOM     11  H   UNL     1      11.910   0.588   1.075  1.00  0.00    +0.000 HD
ENDBRANCH   3  10
BRANCH   1  12
ATOM     12  C   UNL     1      15.155   2.754   1.180  1.00  0.00    +0.000 C 
BRANCH  12  13
ATOM     13  O   UNL     1      15.091   2.004  -0.035  1.00  0.00    +0.000 OA
ATOM     14  H   UNL     1      15.762   2.371  -0.625  1.00  0.00    +0.000 HD
ENDBRANCH  12  13
ENDBRANCH   1  12
BRANCH   4  15
ATOM     15  C   UNL     1      11.937   2.179   4.370  1.00  0.00    +0.000 C 
BRANCH  15  16
ATOM     16  O   UNL     1      11.599   0.887   4.879  1.00  0.00    +0.000 OA
ATOM     17  H   UNL     1      12.431   0.415   5.020  1.00  0.00    +0.000 HD
ENDBRANCH  15  16
ENDBRANCH   4  15
TORSDOF 7
ENDMDL
