MODEL 1
REMARK VINA RESULT:    -6.000      0.000      0.000
REMARK INTER + INTRA:          -6.701
REMARK INTER:                  -6.701
REMARK INTRA:                   0.000
REMARK UNBOUND:                 0.000
REMARK  Name = RIP
REMARK  4 active torsions:
REMARK  status: ('A' for Active; 'I' for Inactive)
REMARK    1  A    between atoms: C_1  and  O_6
REMARK    2  A    between atoms: C_2  and  O_7
REMARK    3  A    between atoms: C_3  and  O_8
REMARK    4  A    between atoms: C_4  and  O_9
REMARK                            x       y       z     vdW  Elec       q    Type
REMARK                         _______ _______ _______ _____ _____    ______ ____
ROOT
ATOM      1  C   UNL     1       4.204  -2.894   0.100  1.00  0.00    +0.000 C 
ATOM      2  C   UNL     1       4.270  -1.389   0.361  1.00  0.00    +0.000 C 
ATOM      3  C   UNL     1       3.617  -1.085   1.714  1.00  0.00    +0.000 C 
ATOM      4  C   UNL     1       2.209  -1.691   1.726  1.00  0.00    +0.000 C 
ATOM      5  C   UNL     1       2.299  -3.174   1.361  1.00  0.00    +0.000 C 
ATOM      6  O   UNL     1       2.843  -3.317   0.052  1.00  0.00    +0.000 OA
ENDROOT
BRANCH   1   7
ATOM      7  O   UNL     1       4.838  -3.186  -1.147  1.00  0.00    +0.000 OA
ATOM      8  H   UNL     1       5.639  -3.688  -0.941  1.00  0.00    +0.000 HD
ENDBRANCH   1   7
BRANCH   2   9
ATOM      9  O   UNL     1       5.635  -0.966   0.382  1.00  0.00    +0.000 OA
ATOM     10  H   UNL     1       5.774  -0.511   1.223  1.00  0.00    +0.000 HD
ENDBRANCH   2   9
BRANCH   3  11
ATOM     11  O   UNL     1       4.396  -1.663   2.763  1.00  0.00    +0.000 OA
ATOM     12  H   UNL     1       4.539  -0.968   3.420  1.00  0.00    +0.000 HD
ENDBRANCH   3  11
BRANCH   4  13
ATOM     13  O   UNL     1       1.640  -1.552   3.029  1.00  0.00    +0.000 OA
ATOM     14  H   UNL     1       1.616  -0.605   3.224  1.00  0.00    +0.000 HD
ENDBRANCH   4  13
TORSDOF 4
ENDMDL
MODEL 2
REMARK VINA RESULT:    -5.989      1.015      3.268
REMARK INTER + INTRA:          -6.689
REMARK INTER:                  -6.689
REMARK INTRA:                   0.000
REMARK UNBOUND:                 0.000
REMARK  Name = RIP
REMARK  4 active torsions:
REMARK  status: ('A' for Active; 'I' for Inactive)
REMARK    1  A    between atoms: C_1  and  O_6
REMARK    2  A    between atoms: C_2  and  O_7
REMARK    3  A    between atoms: C_3  and  O_8
REMARK    4  A    between atoms: C_4  and  O_9
REMARK                            x       y       z     vdW  Elec       q    Type
REMARK                         _______ _______ _______ _____ _____    ______ ____
ROOT
ATOM      1  C   UNL     1       2.770  -1.276   1.682  1.00  0.00    +0.000 C 
ATOM      2  C   UNL     1       4.033  -1.992   2.162  1.00  0.00    +0.000 C 
ATOM      3  C   UNL     1       4.959  -2.234   0.966  1.00  0.00    +0.000 C 
ATOM      4  C   UNL     1       4.169  -2.963  -0.127  1.00  0.00    +0.000 C 
ATOM      5  C   UNL     1       2.896  -2.173  -0.434  1.00  0.00    +0.000 C 
ATOM      6  O   UNL     1       2.084  -2.091   0.733  1.00  0.00    +0.000 OA
ENDROOT
BRANCH   1   7
ATOM      7  O   UNL     1       1.916  -1.021   2.798  1.00  0.00    +0.000 OA
ATOM      8  H   UNL     1       1.007  -1.125   2.483  1.00  0.00    +0.000 HD
ENDBRANCH   1   7
BRANCH   2   9
ATOM      9  O   UNL     1       4.702  -1.182   3.131  1.00  0.00    +0.000 OA
ATOM     10  H   UNL     1       5.604  -1.522   3.204  1.00  0.00    +0.000 HD
ENDBRANCH   2   9
BRANCH   3  11
ATOM     11  O   UNL     1       5.429  -0.982   0.463  1.00  0.00    +0.000 OA
ATOM     12  H   UNL     1       5.480  -1.068  -0.499  1.00  0.00    +0.000 HD
ENDBRANCH   3  11
BRANCH   4  13
ATOM     13  O   UNL     1       4.967  -3.063  -1.307  1.00  0.00    +0.000 OA
ATOM     14  H   UNL     1       5.144  -2.159  -1.603  1.00  0.00    +0.000 HD
ENDBRANCH   4  13
TORSDOF 4
ENDMDL
MODEL 3
REMARK VINA RESULT:    -5.967      1.265      3.730
REMARK INTER + INTRA:          -6.664
REMARK INTER:                  -6.664
REMARK INTRA:                   0.000
REMARK UNBOUND:                 0.000
REMARK  Name = RIP
REMARK  4 active torsions:
REMARK  status: ('A' for Active; 'I' for Inactive)
REMARK    1  A    between atoms: C_1  and  O_6
REMARK    2  A    between atoms: C_2  and  O_7
REMARK    3  A    between atoms: C_3  and  O_8
REMARK    4  A    between atoms: C_4  and  O_9
REMARK                            x       y       z     vdW  Elec       q    Type
REMARK                         _______ _______ _______ _____ _____    ______ ____
ROOT
ATOM      1  C   UNL     1       3.840  -1.296   1.784  1.00  0.00    +0.000 C 
ATOM      2  C   UNL     1       2.781  -1.374   0.683  1.00  0.00    +0.000 C 
ATOM      3  C   UNL     1       3.094  -2.564  -0.230  1.00  0.00    +0.000 C 
ATOM      4  C   UNL     1       4.540  -2.439  -0.721  1.00  0.00    +0.000 C 
ATOM      5  C   UNL     1       5.466  -2.280   0.487  1.00  0.00    +0.000 C 
ATOM      6  O   UNL     1       5.127  -1.096   1.203  1.00  0.00    +0.000 OA
ENDROOT
BRANCH   1   7
ATOM      7  O   UNL     1       3.536  -0.205   2.656  1.00  0.00    +0.000 OA
ATOM      8  H   UNL     1       2.769  -0.473   3.181  1.00  0.00    +0.000 HD
ENDBRANCH   1   7
BRANCH   2   9
ATOM      9  O   UNL     1       1.491  -1.548   1.272  1.00  0.00    +0.000 OA
ATOM     10  H   UNL     1       1.595  -2.185   1.991  1.00  0.00    +0.000 HD
ENDBRANCH   2   9
BRANCH   3  11
ATOM     11  O   UNL     1       2.940  -3.782   0.500  1.00  0.00    +0.000 OA
ATOM     12  H   UNL     1       3.364  -4.477  -0.022  1.00  0.00    +0.000 HD
ENDBRANCH   3  11
BRANCH   4  13
ATOM     13  O   UNL     1       4.902  -3.614  -1.449  1.00  0.00    +0.000 OA
ATOM     14  H   UNL     1       4.405  -3.592  -2.279  1.00  0.00    +0.000 HD
ENDBRANCH   4  13
TORSDOF 4
ENDMDL
MODEL 4
REMARK VINA RESULT:    -5.938      1.303      3.450
REMARK INTER + INTRA:          -6.633
REMARK INTER:                  -6.633
REMARK INTRA:                   0.000
REMARK UNBOUND:                 0.000
REMARK  Name = RIP
REMARK  4 active torsions:
REMARK  status: ('A' for Active; 'I' for Inactive)
REMARK    1  A    between atoms: C_1  and  O_6
REMARK    2  A    between atoms: C_2  and  O_7
REMARK    3  A    between atoms: C_3  and  O_8
REMARK    4  A    between atoms: C_4  and  O_9
REMARK                            x       y       z     vdW  Elec       q    Type
REMARK                         _______ _______ _______ _____ _____    ______ ____
ROOT
ATOM      1  C   UNL     1       4.414  -1.790   2.306  1.00  0.00    +0.000 C 
ATOM      2  C   UNL     1       2.886  -1.829   2.368  1.00  0.00    +0.000 C 
ATOM      3  C   UNL     1       2.344  -2.379   1.045  1.00  0.00    +0.000 C 
ATOM      4  C   UNL     1       2.931  -1.555  -0.106  1.00  0.00    +0.000 C 
ATOM      5  C   UNL     1       4.456  -1.538   0.019  1.00  0.00    +0.000 C 
ATOM      6  O   UNL     1       4.833  -0.928   1.250  1.00  0.00    +0.000 OA
ENDROOT
BRANCH   1   7
ATOM      7  O   UNL     1       4.927  -1.306   3.548  1.00  0.00    +0.000 OA
ATOM      8  H   UNL     1       4.657  -0.380   3.619  1.00  0.00    +0.000 HD
ENDBRANCH   1   7
BRANCH   2   9
ATOM      9  O   UNL     1       2.473  -2.673   3.445  1.00  0.00    +0.000 OA
ATOM     10  H   UNL     1       2.313  -2.098   4.205  1.00  0.00    +0.000 HD
ENDBRANCH   2   9
BRANCH   3  11
ATOM     11  O   UNL     1       2.728  -3.747   0.901  1.00  0.00    +0.000 OA
ATOM     12  H   UNL     1       1.932  -4.237   0.655  1.00  0.00    +0.000 HD
ENDBRANCH   3  11
BRANCH   4  13
ATOM     13  O   UNL     1       2.560  -2.145  -1.354  1.00  0.00    +0.000 OA
ATOM     14  H   UNL     1       2.834  -1.528  -2.047  1.00  0.00    +0.000 HD
ENDBRANCH   4  13
TORSDOF 4
ENDMDL
MODEL 5
REMARK VINA RESULT:    -5.596      1.211      3.139
REMARK INTER + INTRA:          -6.251
REMARK INTER:                  -6.251
REMARK INTRA:                   0.000
REMARK UNBOUND:                 0.000
REMARK  Name = RIP
REMARK  4 active torsions:
REMARK  status: ('A' for Active; 'I' for Inactive)
REMARK    1  A    between atoms: C_1  and  O_6
REMARK    2  A    between atoms: C_2  and  O_7
REMARK    3  A    between atoms: C_3  and  O_8
REMARK    4  A    between atoms: C_4  and  O_9
REMARK                            x       y       z     vdW  Elec       q    Type
REMARK                         _______ _______ _______ _____ _____    ______ ____
ROOT
ATOM      1  C   UNL     1       2.239  -2.197   0.509  1.00  0.00    +0.000 C 
ATOM      2  C   UNL     1       2.950  -2.684   1.773  1.00  0.00    +0.000 C 
ATOM      3  C   UNL     1       4.288  -1.951   1.910  1.00  0.00    +0.000 C 
ATOM      4  C   UNL     1       5.078  -2.123   0.608  1.00  0.00    +0.000 C 
ATOM      5  C   UNL     1       4.206  -1.678  -0.568  1.00  0.00    +0.000 C 
ATOM      6  O   UNL     1       3.037  -2.489  -0.637  1.00  0.00    +0.000 OA
ENDROOT
BRANCH   1   7
ATOM      7  O   UNL     1       0.977  -2.856   0.392  1.00  0.00    +0.000 OA
ATOM      8  H   UNL     1       0.450  -2.586   1.156  1.00  0.00    +0.000 HD
ENDBRANCH   1   7
BRANCH   2   9
ATOM      9  O   UNL     1       2.135  -2.412   2.915  1.00  0.00    +0.000 OA
ATOM     10  H   UNL     1       2.156  -1.456   3.052  1.00  0.00    +0.000 HD
ENDBRANCH   2   9
BRANCH   3  11
ATOM     11  O   UNL     1       4.052  -0.562   2.147  1.00  0.00    +0.000 OA
ATOM     12  H   UNL     1       4.027  -0.130   1.282  1.00  0.00    +0.000 HD
ENDBRANCH   3  11
BRANCH   4  13
ATOM     13  O   UNL     1       6.261  -1.322   0.656  1.00  0.00    +0.000 OA
ATOM     14  H   UNL     1       6.233  -0.834   1.491  1.00  0.00    +0.000 HD
ENDBRANCH   4  13
TORSDOF 4
ENDMDL
MODEL 6
REMARK VINA RESULT:    -5.491      1.321      2.426
REMARK INTER + INTRA:          -6.133
REMARK INTER:                  -6.133
REMARK INTRA:                   0.000
REMARK UNBOUND:                 0.000
REMARK  Name = RIP
REMARK  4 active torsions:
REMARK  status: ('A' for Active; 'I' for Inactive)
REMARK    1  A    between atoms: C_1  and  O_6
REMARK    2  A    between atoms: C_2  and  O_7
REMARK    3  A    between atoms: C_3  and  O_8
REMARK    4  A    between atoms: C_4  and  O_9
REMARK                            x       y       z     vdW  Elec       q    Type
REMARK                         _______ _______ _______ _____ _____    ______ ____
ROOT
ATOM      1  C   UNL     1       4.181  -1.341   0.229  1.00  0.00    +0.000 C 
ATOM      2  C   UNL     1       3.136  -2.430  -0.016  1.00  0.00    +0.000 C 
ATOM      3  C   UNL     1       2.224  -2.535   1.211  1.00  0.00    +0.000 C 
ATOM      4  C   UNL     1       3.097  -2.734   2.456  1.00  0.00    +0.000 C 
ATOM      5  C   UNL     1       4.146  -1.621   2.513  1.00  0.00    +0.000 C 
ATOM      6  O   UNL     1       4.980  -1.683   1.360  1.00  0.00    +0.000 OA
ENDROOT
BRANCH   1   7
ATOM      7  O   UNL     1       5.016  -1.217  -0.924  1.00  0.00    +0.000 OA
ATOM      8  H   UNL     1       5.093  -2.102  -1.308  1.00  0.00    +0.000 HD
ENDBRANCH   1   7
BRANCH   2   9
ATOM      9  O   UNL     1       2.356  -2.094  -1.165  1.00  0.00    +0.000 OA
ATOM     10  H   UNL     1       1.460  -2.414  -0.998  1.00  0.00    +0.000 HD
ENDBRANCH   2   9
BRANCH   3  11
ATOM     11  O   UNL     1       1.462  -1.335   1.347  1.00  0.00    +0.000 OA
ATOM     12  H   UNL     1       2.083  -0.635   1.590  1.00  0.00    +0.000 HD
ENDBRANCH   3  11
BRANCH   4  13
ATOM     13  O   UNL     1       2.279  -2.683   3.626  1.00  0.00    +0.000 OA
ATOM     14  H   UNL     1       1.713  -1.903   3.537  1.00  0.00    +0.000 HD
ENDBRANCH   4  13
TORSDOF 4
ENDMDL
MODEL 7
REMARK VINA RESULT:    -5.276      1.401      2.743
REMARK INTER + INTRA:          -5.892
REMARK INTER:                  -5.892
REMARK INTRA:                   0.000
REMARK UNBOUND:                 0.000
REMARK  Name = RIP
REMARK  4 active torsions:
REMARK  status: ('A' for Active; 'I' for Inactive)
REMARK    1  A    between atoms: C_1  and  O_6
REMARK    2  A    between atoms: C_2  and  O_7
REMARK    3  A    between atoms: C_3  and  O_8
REMARK    4  A    between atoms: C_4  and  O_9
REMARK                            x       y       z     vdW  Elec       q    Type
REMARK                         _______ _______ _______ _____ _____    ______ ____
ROOT
ATOM      1  C   UNL     1       4.214  -1.418   2.627  1.00  0.00    +0.000 C 
ATOM      2  C   UNL     1       4.695  -2.143   1.369  1.00  0.00    +0.000 C 
ATOM      3  C   UNL     1       3.532  -2.253   0.377  1.00  0.00    +0.000 C 
ATOM      4  C   UNL     1       2.339  -2.901   1.089  1.00  0.00    +0.000 C 
ATOM      5  C   UNL     1       2.036  -2.118   2.369  1.00  0.00    +0.000 C 
ATOM      6  O   UNL     1       3.162  -2.162   3.240  1.00  0.00    +0.000 OA
ENDROOT
BRANCH   1   7
ATOM      7  O   UNL     1       5.302  -1.287   3.543  1.00  0.00    +0.000 OA
ATOM      8  H   UNL     1       5.702  -2.163   3.628  1.00  0.00    +0.000 HD
ENDBRANCH   1   7
BRANCH   2   9
ATOM      9  O   UNL     1       5.765  -1.407   0.773  1.00  0.00    +0.000 OA
ATOM     10  H   UNL     1       5.770  -1.632  -0.167  1.00  0.00    +0.000 HD
ENDBRANCH   2   9
BRANCH   3  11
ATOM     11  O   UNL     1       3.167  -0.950  -0.080  1.00  0.00    +0.000 OA
ATOM     12  H   UNL     1       2.263  -1.014  -0.417  1.00  0.00    +0.000 HD
ENDBRANCH   3  11
BRANCH   4  13
ATOM     13  O   UNL     1       1.198  -2.874   0.230  1.00  0.00    +0.000 OA
ATOM     14  H   UNL     1       0.546  -3.479   0.612  1.00  0.00    +0.000 HD
ENDBRANCH   4  13
TORSDOF 4
ENDMDL
MODEL 8
REMARK VINA RESULT:    -5.087      1.302      3.446
REMARK INTER + INTRA:          -5.682
REMARK INTER:                  -5.682
REMARK INTRA:                   0.000
REMARK UNBOUND:                 0.000
REMARK  Name = RIP
REMARK  4 active torsions:
REMARK  status: ('A' for Active; 'I' for Inactive)
REMARK    1  A    between atoms: C_1  and  O_6
REMARK    2  A    between atoms: C_2  and  O_7
REMARK    3  A    between atoms: C_3  and  O_8
REMARK    4  A    between atoms: C_4  and  O_9
REMARK                            x       y       z     vdW  Elec       q    Type
REMARK                         _______ _______ _______ _____ _____    ______ ____
ROOT
ATOM      1  C   UNL     1       2.400  -1.814   1.245  1.00  0.00    +0.000 C 
ATOM      2  C   UNL     1       2.933  -1.398  -0.127  1.00  0.00    +0.000 C 
ATOM      3  C   UNL     1       4.398  -1.830  -0.247  1.00  0.00    +0.000 C 
ATOM      4  C   UNL     1       5.174  -1.273   0.952  1.00  0.00    +0.000 C 
ATOM      5  C   UNL     1       4.471  -1.699   2.243  1.00  0.00    +0.000 C 
ATOM      6  O   UNL     1       3.149  -1.167   2.271  1.00  0.00    +0.000 OA
ENDROOT
BRANCH   1   7
ATOM      7  O   UNL     1       1.025  -1.441   1.351  1.00  0.00    +0.000 OA
ATOM      8  H   UNL     1       0.984  -0.485   1.214  1.00  0.00    +0.000 HD
ENDBRANCH   1   7
BRANCH   2   9
ATOM      9  O   UNL     1       2.161  -2.029  -1.151  1.00  0.00    +0.000 OA
ATOM     10  H   UNL     1       2.591  -2.873  -1.345  1.00  0.00    +0.000 HD
ENDBRANCH   2   9
BRANCH   3  11
ATOM     11  O   UNL     1       4.480  -3.255  -0.251  1.00  0.00    +0.000 OA
ATOM     12  H   UNL     1       5.368  -3.484  -0.558  1.00  0.00    +0.000 HD
ENDBRANCH   3  11
BRANCH   4  13
ATOM     13  O   UNL     1       6.506  -1.789   0.940  1.00  0.00    +0.000 OA
ATOM     14  H   UNL     1       6.433  -2.753   0.943  1.00  0.00    +0.000 HD
ENDBRANCH   4  13
TORSDOF 4
ENDMDL
MODEL 9
REMARK VINA RESULT:    -4.916      1.232      2.232
REMARK INTER + INTRA:          -5.490
REMARK INTER:                  -5.490
REMARK INTRA:                   0.000
REMARK UNBOUND:                 0.000
REMARK  Name = RIP
REMARK  4 active torsions:
REMARK  status: ('A' for Active; 'I' for Inactive)
REMARK    1  A    between atoms: C_1  and  O_6
REMARK    2  A    between atoms: C_2  and  O_7
REMARK    3  A    between atoms: C_3  and  O_8
REMARK    4  A    between atoms: C_4  and  O_9
REMARK                            x       y       z     vdW  Elec       q    Type
REMARK                         _______ _______ _______ _____ _____    ______ ____
ROOT
ATOM      1  C   UNL     1       5.057  -2.137   1.223  1.00  0.00    +0.000 C 
ATOM      2  C   UNL     1       4.073  -1.119   1.801  1.00  0.00    +0.000 C 
ATOM      3  C   UNL     1       2.662  -1.714   1.777  1.00  0.00    +0.000 C 
ATOM      4  C   UNL     1       2.353  -2.186   0.352  1.00  0.00    +0.000 C 
ATOM      5  C   UNL     1       3.467  -3.124  -0.117  1.00  0.00    +0.000 C 
ATOM      6  O   UNL     1       4.711  -2.429  -0.129  1.00  0.00    +0.000 OA
ENDROOT
BRANCH   1   7
ATOM      7  O   UNL     1       6.379  -1.599   1.271  1.00  0.00    +0.000 OA
ATOM      8  H   UNL     1       6.315  -0.676   0.987  1.00  0.00    +0.000 HD
ENDBRANCH   1   7
BRANCH   2   9
ATOM      9  O   UNL     1       4.441  -0.810   3.148  1.00  0.00    +0.000 OA
ATOM     10  H   UNL     1       5.002  -1.533   3.456  1.00  0.00    +0.000 HD
ENDBRANCH   2   9
BRANCH   3  11
ATOM     11  O   UNL     1       2.594  -2.823   2.674  1.00  0.00    +0.000 OA
ATOM     12  H   UNL     1       1.666  -2.920   2.931  1.00  0.00    +0.000 HD
ENDBRANCH   3  11
BRANCH   4  13
ATOM     13  O   UNL     1       1.105  -2.881   0.338  1.00  0.00    +0.000 OA
ATOM     14  H   UNL     1       1.300  -3.802   0.114  1.00  0.00    +0.000 HD
ENDBRANCH   4  13
TORSDOF 4
ENDMDL
