MODEL 1
REMARK VINA RESULT:    -6.104      0.000      0.000
REMARK INTER + INTRA:          -6.104
REMARK INTER:                  -6.104
REMARK INTRA:                   0.000
REMARK UNBOUND:                 0.000
REMARK  Name = HPA
REMARK  0 active torsions:
REMARK  status: ('A' for Active; 'I' for Inactive)
REMARK                            x       y       z     vdW  Elec       q    Type
REMARK                         _______ _______ _______ _____ _____    ______ ____
ROOT
ATOM      1  N   UNL     1       2.447  -1.327   2.663  1.00  0.00    +0.000 N 
ATOM      2  C   UNL     1       1.494  -1.751   1.795  1.00  0.00    +0.000 A 
ATOM      3  N   UNL     1       1.789  -2.273   0.640  1.00  0.00    +0.000 NA
ATOM      4  C   UNL     1       3.072  -2.418   0.249  1.00  0.00    +0.000 A 
ATOM      5  C   UNL     1       4.095  -1.995   1.099  1.00  0.00    +0.000 A 
ATOM      6  C   UNL     1       3.756  -1.437   2.346  1.00  0.00    +0.000 A 
ATOM      7  O   UNL     1       4.621  -1.060   3.119  1.00  0.00    +0.000 OA
ATOM      8  N   UNL     1       5.278  -2.269   0.447  1.00  0.00    +0.000 N 
ATOM      9  C   UNL     1       4.956  -2.823  -0.742  1.00  0.00    +0.000 A 
ATOM     10  N   UNL     1       3.658  -2.910  -0.855  1.00  0.00    +0.000 NA
ATOM     11  H   UNL     1       2.187  -0.943   3.515  1.00  0.00    +0.000 HD
ATOM     12  H   UNL     1       6.173  -2.093   0.777  1.00  0.00    +0.000 HD
ENDROOT
TORSDOF 0
ENDMDL
MODEL 2
REMARK VINA RESULT:    -5.736      0.818      2.800
REMARK INTER + INTRA:          -5.736
REMARK INTER:                  -5.736
REMARK INTRA:                   0.000
REMARK UNBOUND:                 0.000
REMARK  Name = HPA
REMARK  0 active torsions:
REMARK  status: ('A' for Active; 'I' for Inactive)
REMARK                            x       y       z     vdW  Elec       q    Type
REMARK                         _______ _______ _______ _____ _____    ______ ____
ROOT
ATOM      1  N   UNL     1       5.677  -1.736   1.432  1.00  0.00    +0.000 N 
ATOM      2  C   UNL     1       5.441  -2.122   0.152  1.00  0.00    +0.000 A 
ATOM      3  N   UNL     1       4.238  -2.318  -0.304  1.00  0.00    +0.000 NA
ATOM      4  C   UNL     1       3.158  -2.145   0.484  1.00  0.00    +0.000 A 
ATOM      5  C   UNL     1       3.339  -1.753   1.812  1.00  0.00    +0.000 A 
ATOM      6  C   UNL     1       4.647  -1.541   2.286  1.00  0.00    +0.000 A 
ATOM      7  O   UNL     1       4.847  -1.193   3.437  1.00  0.00    +0.000 OA
ATOM      8  N   UNL     1       2.079  -1.654   2.361  1.00  0.00    +0.000 N 
ATOM      9  C   UNL     1       1.197  -1.983   1.393  1.00  0.00    +0.000 A 
ATOM     10  N   UNL     1       1.834  -2.271   0.291  1.00  0.00    +0.000 NA
ATOM     11  H   UNL     1       6.588  -1.599   1.735  1.00  0.00    +0.000 HD
ATOM     12  H   UNL     1       1.865  -1.399   3.272  1.00  0.00    +0.000 HD
ENDROOT
TORSDOF 0
ENDMDL
MODEL 3
REMARK VINA RESULT:    -5.456      1.894      2.545
REMARK INTER + INTRA:          -5.456
REMARK INTER:                  -5.456
REMARK INTRA:                   0.000
REMARK UNBOUND:                 0.000
REMARK  Name = HPA
REMARK  0 active torsions:
REMARK  status: ('A' for Active; 'I' for Inactive)
REMARK                            x       y       z     vdW  Elec       q    Type
REMARK                         _______ _______ _______ _____ _____    ______ ____
ROOT
ATOM      1  N   UNL     1       1.401  -1.768   1.001  1.00  0.00    +0.000 N 
ATOM      2  C   UNL     1       1.699  -1.704   2.324  1.00  0.00    +0.000 A 
ATOM      3  N   UNL     1       2.926  -1.684   2.759  1.00  0.00    +0.000 NA
ATOM      4  C   UNL     1       3.969  -1.725   1.906  1.00  0.00    +0.000 A 
ATOM      5  C   UNL     1       3.723  -1.796   0.533  1.00  0.00    +0.000 A 
ATOM      6  C   UNL     1       2.391  -1.813   0.081  1.00  0.00    +0.000 A 
ATOM      7  O   UNL     1       2.134  -1.869  -1.110  1.00  0.00    +0.000 OA
ATOM      8  N   UNL     1       4.957  -1.821  -0.079  1.00  0.00    +0.000 N 
ATOM      9  C   UNL     1       5.887  -1.774   0.898  1.00  0.00    +0.000 A 
ATOM     10  N   UNL     1       5.302  -1.718   2.065  1.00  0.00    +0.000 NA
ATOM     11  H   UNL     1       0.475  -1.781   0.715  1.00  0.00    +0.000 HD
ATOM     12  H   UNL     1       5.127  -1.867  -1.033  1.00  0.00    +0.000 HD
ENDROOT
TORSDOF 0
ENDMDL
MODEL 4
REMARK VINA RESULT:    -5.444      2.000      3.673
REMARK INTER + INTRA:          -5.444
REMARK INTER:                  -5.444
REMARK INTRA:                   0.000
REMARK UNBOUND:                 0.000
REMARK  Name = HPA
REMARK  0 active torsions:
REMARK  status: ('A' for Active; 'I' for Inactive)
REMARK                            x       y       z     vdW  Elec       q    Type
REMARK                         _______ _______ _______ _____ _____    ______ ____
ROOT
ATOM      1  N   UNL     1       4.448  -1.300  -0.733  1.00  0.00    +0.000 N 
ATOM      2  C   UNL     1       5.471  -1.377   0.155  1.00  0.00    +0.000 A 
ATOM      3  N   UNL     1       5.284  -1.683   1.406  1.00  0.00    +0.000 NA
ATOM      4  C   UNL     1       4.049  -1.941   1.882  1.00  0.00    +0.000 A 
ATOM      5  C   UNL     1       2.957  -1.872   1.016  1.00  0.00    +0.000 A 
ATOM      6  C   UNL     1       3.179  -1.544  -0.334  1.00  0.00    +0.000 A 
ATOM      7  O   UNL     1       2.252  -1.479  -1.124  1.00  0.00    +0.000 OA
ATOM      8  N   UNL     1       1.845  -2.183   1.769  1.00  0.00    +0.000 N 
ATOM      9  C   UNL     1       2.272  -2.417   3.028  1.00  0.00    +0.000 A 
ATOM     10  N   UNL     1       3.569  -2.274   3.092  1.00  0.00    +0.000 NA
ATOM     11  H   UNL     1       4.627  -1.068  -1.658  1.00  0.00    +0.000 HD
ATOM     12  H   UNL     1       0.928  -2.224   1.455  1.00  0.00    +0.000 HD
ENDROOT
TORSDOF 0
ENDMDL
MODEL 5
REMARK VINA RESULT:    -5.366      1.812      3.003
REMARK INTER + INTRA:          -5.366
REMARK INTER:                  -5.366
REMARK INTRA:                   0.000
REMARK UNBOUND:                 0.000
REMARK  Name = HPA
REMARK  0 active torsions:
REMARK  status: ('A' for Active; 'I' for Inactive)
REMARK                            x       y       z     vdW  Elec       q    Type
REMARK                         _______ _______ _______ _____ _____    ______ ____
ROOT
ATOM      1  N   UNL     1       3.369  -2.170  -1.059  1.00  0.00    +0.000 N 
ATOM      2  C   UNL     1       2.267  -1.638  -0.473  1.00  0.00    +0.000 A 
ATOM      3  N   UNL     1       2.259  -1.252   0.770  1.00  0.00    +0.000 NA
ATOM      4  C   UNL     1       3.359  -1.365   1.541  1.00  0.00    +0.000 A 
ATOM      5  C   UNL     1       4.522  -1.910   0.993  1.00  0.00    +0.000 A 
ATOM      6  C   UNL     1       4.513  -2.317  -0.354  1.00  0.00    +0.000 A 
ATOM      7  O   UNL     1       5.510  -2.793  -0.871  1.00  0.00    +0.000 OA
ATOM      8  N   UNL     1       5.466  -1.895   1.997  1.00  0.00    +0.000 N 
ATOM      9  C   UNL     1       4.874  -1.369   3.091  1.00  0.00    +0.000 A 
ATOM     10  N   UNL     1       3.635  -1.058   2.819  1.00  0.00    +0.000 NA
ATOM     11  H   UNL     1       3.336  -2.446  -1.989  1.00  0.00    +0.000 HD
ATOM     12  H   UNL     1       6.382  -2.207   1.932  1.00  0.00    +0.000 HD
ENDROOT
TORSDOF 0
ENDMDL
MODEL 6
REMARK VINA RESULT:    -5.041      1.694      2.497
REMARK INTER + INTRA:          -5.041
REMARK INTER:                  -5.041
REMARK INTRA:                   0.000
REMARK UNBOUND:                 0.000
REMARK  Name = HPA
REMARK  0 active torsions:
REMARK  status: ('A' for Active; 'I' for Inactive)
REMARK                            x       y       z     vdW  Elec       q    Type
REMARK                         _______ _______ _______ _____ _____    ______ ____
ROOT
ATOM      1  N   UNL     1       5.431  -1.668   2.435  1.00  0.00    +0.000 N 
ATOM      2  C   UNL     1       4.271  -1.664   3.140  1.00  0.00    +0.000 A 
ATOM      3  N   UNL     1       3.108  -1.582   2.563  1.00  0.00    +0.000 NA
ATOM      4  C   UNL     1       3.001  -1.496   1.221  1.00  0.00    +0.000 A 
ATOM      5  C   UNL     1       4.161  -1.490   0.444  1.00  0.00    +0.000 A 
ATOM      6  C   UNL     1       5.409  -1.585   1.086  1.00  0.00    +0.000 A 
ATOM      7  O   UNL     1       6.446  -1.589   0.443  1.00  0.00    +0.000 OA
ATOM      8  N   UNL     1       3.747  -1.398  -0.867  1.00  0.00    +0.000 N 
ATOM      9  C   UNL     1       2.398  -1.344  -0.855  1.00  0.00    +0.000 A 
ATOM     10  N   UNL     1       1.962  -1.402   0.374  1.00  0.00    +0.000 NA
ATOM     11  H   UNL     1       6.279  -1.731   2.902  1.00  0.00    +0.000 HD
ATOM     12  H   UNL     1       4.317  -1.374  -1.651  1.00  0.00    +0.000 HD
ENDROOT
TORSDOF 0
ENDMDL
MODEL 7
REMARK VINA RESULT:    -4.942      1.695      2.633
REMARK INTER + INTRA:          -4.942
REMARK INTER:                  -4.942
REMARK INTRA:                   0.000
REMARK UNBOUND:                 0.000
REMARK  Name = HPA
REMARK  0 active torsions:
REMARK  status: ('A' for Active; 'I' for Inactive)
REMARK                            x       y       z     vdW  Elec       q    Type
REMARK                         _______ _______ _______ _____ _____    ______ ____
ROOT
ATOM      1  N   UNL     1       4.100  -2.017   3.303  1.00  0.00    +0.000 N 
ATOM      2  C   UNL     1       5.210  -1.636   2.622  1.00  0.00    +0.000 A 
ATOM      3  N   UNL     1       5.178  -1.329   1.357  1.00  0.00    +0.000 NA
ATOM      4  C   UNL     1       4.026  -1.376   0.658  1.00  0.00    +0.000 A 
ATOM      5  C   UNL     1       2.852  -1.766   1.305  1.00  0.00    +0.000 A 
ATOM      6  C   UNL     1       2.906  -2.090   2.674  1.00  0.00    +0.000 A 
ATOM      7  O   UNL     1       1.901  -2.430   3.276  1.00  0.00    +0.000 OA
ATOM      8  N   UNL     1       1.854  -1.717   0.357  1.00  0.00    +0.000 N 
ATOM      9  C   UNL     1       2.424  -1.321  -0.801  1.00  0.00    +0.000 A 
ATOM     10  N   UNL     1       3.702  -1.121  -0.621  1.00  0.00    +0.000 NA
ATOM     11  H   UNL     1       4.164  -2.239   4.245  1.00  0.00    +0.000 HD
ATOM     12  H   UNL     1       0.917  -1.930   0.494  1.00  0.00    +0.000 HD
ENDROOT
TORSDOF 0
ENDMDL
MODEL 8
REMARK VINA RESULT:    -4.855     12.251     13.548
REMARK INTER + INTRA:          -4.855
REMARK INTER:                  -4.855
REMARK INTRA:                   0.000
REMARK UNBOUND:                 0.000
REMARK  Name = HPA
REMARK  0 active torsions:
REMARK  status: ('A' for Active; 'I' for Inactive)
REMARK                            x       y       z     vdW  Elec       q    Type
REMARK                         _______ _______ _______ _____ _____    ______ ____
ROOT
ATOM      1  N   UNL     1      -8.699 -10.149  -0.961  1.00  0.00    +0.000 N 
ATOM      2  C   UNL     1      -9.532 -10.125   0.111  1.00  0.00    +0.000 A 
ATOM      3  N   UNL     1      -9.244  -9.475   1.201  1.00  0.00    +0.000 NA
ATOM      4  C   UNL     1      -8.090  -8.787   1.316  1.00  0.00    +0.000 A 
ATOM      5  C   UNL     1      -7.191  -8.779   0.247  1.00  0.00    +0.000 A 
ATOM      6  C   UNL     1      -7.523  -9.484  -0.925  1.00  0.00    +0.000 A 
ATOM      7  O   UNL     1      -6.767  -9.498  -1.882  1.00  0.00    +0.000 OA
ATOM      8  N   UNL     1      -6.123  -8.005   0.646  1.00  0.00    +0.000 N 
ATOM      9  C   UNL     1      -6.385  -7.583   1.901  1.00  0.00    +0.000 A 
ATOM     10  N   UNL     1      -7.542  -8.045   2.293  1.00  0.00    +0.000 NA
ATOM     11  H   UNL     1      -8.950 -10.645  -1.756  1.00  0.00    +0.000 HD
ATOM     12  H   UNL     1      -5.331  -7.803   0.124  1.00  0.00    +0.000 HD
ENDROOT
TORSDOF 0
ENDMDL
MODEL 9
REMARK VINA RESULT:    -4.710     12.355     13.723
REMARK INTER + INTRA:          -4.710
REMARK INTER:                  -4.710
REMARK INTRA:                   0.000
REMARK UNBOUND:                 0.000
REMARK  Name = HPA
REMARK  0 active torsions:
REMARK  status: ('A' for Active; 'I' for Inactive)
REMARK                            x       y       z     vdW  Elec       q    Type
REMARK                         _______ _______ _______ _____ _____    ______ ____
ROOT
ATOM      1  N   UNL     1      -6.095  -8.040   0.315  1.00  0.00    +0.000 N 
ATOM      2  C   UNL     1      -6.486  -7.656   1.557  1.00  0.00    +0.000 A 
ATOM      3  N   UNL     1      -7.536  -8.158   2.141  1.00  0.00    +0.000 NA
ATOM      4  C   UNL     1      -8.292  -9.093   1.530  1.00  0.00    +0.000 A 
ATOM      5  C   UNL     1      -7.941  -9.522   0.249  1.00  0.00    +0.000 A 
ATOM      6  C   UNL     1      -6.800  -8.972  -0.364  1.00  0.00    +0.000 A 
ATOM      7  O   UNL     1      -6.457  -9.325  -1.480  1.00  0.00    +0.000 OA
ATOM      8  N   UNL     1      -8.877 -10.467  -0.112  1.00  0.00    +0.000 N 
ATOM      9  C   UNL     1      -9.745 -10.578   0.916  1.00  0.00    +0.000 A 
ATOM     10  N   UNL     1      -9.398  -9.769   1.880  1.00  0.00    +0.000 NA
ATOM     11  H   UNL     1      -5.307  -7.643  -0.087  1.00  0.00    +0.000 HD
ATOM     12  H   UNL     1      -8.909 -10.957  -0.948  1.00  0.00    +0.000 HD
ENDROOT
TORSDOF 0
ENDMDL
