MODEL 1
REMARK VINA RESULT:    -5.647      0.000      0.000
REMARK INTER + INTRA:          -6.848
REMARK INTER:                  -6.802
REMARK INTRA:                  -0.045
REMARK UNBOUND:                -0.045
REMARK  Name = BGC
REMARK  6 active torsions:
REMARK  status: ('A' for Active; 'I' for Inactive)
REMARK    1  A    between atoms: C_1  and  O_8
REMARK    2  A    between atoms: C_2  and  O_9
REMARK    3  A    between atoms: C_3  and  O_10
REMARK    4  A    between atoms: C_4  and  C_5
REMARK    5  A    between atoms: C_5  and  O_12
REMARK    6  A    between atoms: C_6  and  O_7
REMARK                            x       y       z     vdW  Elec       q    Type
REMARK                         _______ _______ _______ _____ _____    ______ ____
ROOT
ATOM      1  C   UNL     1       2.716  -1.959   1.866  1.00  0.00    +0.000 C 
ATOM      2  C   UNL     1       4.084  -1.274   1.924  1.00  0.00    +0.000 C 
ATOM      3  C   UNL     1       5.079  -2.072   1.076  1.00  0.00    +0.000 C 
ATOM      4  C   UNL     1       4.545  -2.182  -0.355  1.00  0.00    +0.000 C 
ATOM      5  C   UNL     1       2.273  -2.073   0.404  1.00  0.00    +0.000 C 
ATOM      6  O   UNL     1       3.258  -2.800  -0.335  1.00  0.00    +0.000 OA
ENDROOT
BRANCH   5   7
ATOM      7  O   UNL     1       1.023  -2.761   0.338  1.00  0.00    +0.000 OA
ATOM      8  H   UNL     1       0.931  -3.337  -0.434  1.00  0.00    +0.000 HD
ENDBRANCH   5   7
BRANCH   1   9
ATOM      9  O   UNL     1       1.762  -1.184   2.594  1.00  0.00    +0.000 OA
ATOM     10  H   UNL     1       2.058  -0.925   3.478  1.00  0.00    +0.000 HD
ENDBRANCH   1   9
BRANCH   2  11
ATOM     11  O   UNL     1       4.540  -1.229   3.278  1.00  0.00    +0.000 OA
ATOM     12  H   UNL     1       5.456  -0.934   3.374  1.00  0.00    +0.000 HD
ENDBRANCH   2  11
BRANCH   3  13
ATOM     13  O   UNL     1       6.342  -1.403   1.064  1.00  0.00    +0.000 OA
ATOM     14  H   UNL     1       6.292  -0.474   0.801  1.00  0.00    +0.000 HD
ENDBRANCH   3  13
BRANCH   4  15
ATOM     15  C   UNL     1       5.505  -3.030  -1.194  1.00  0.00    +0.000 C 
BRANCH  15  16
ATOM     16  O   UNL     1       4.771  -4.057  -1.862  1.00  0.00    +0.000 OA
ATOM     17  H   UNL     1       5.285  -4.540  -2.524  1.00  0.00    +0.000 HD
ENDBRANCH  15  16
ENDBRANCH   4  15
TORSDOF 6
ENDMDL
MODEL 2
REMARK VINA RESULT:    -5.548      0.990      2.784
REMARK INTER + INTRA:          -6.729
REMARK INTER:                  -6.490
REMARK INTRA:                  -0.239
REMARK UNBOUND:                -0.045
REMARK  Name = BGC
REMARK  6 active torsions:
REMARK  status: ('A' for Active; 'I' for Inactive)
REMARK    1  A    between atoms: C_1  and  O_8
REMARK    2  A    between atoms: C_2  and  O_9
REMARK    3  A    between atoms: C_3  and  O_10
REMARK    4  A    between atoms: C_4  and  C_5
REMARK    5  A    between atoms: C_5  and  O_12
REMARK    6  A    between atoms: C_6  and  O_7
REMARK                            x       y       z     vdW  Elec       q    Type
REMARK                         _______ _______ _______ _____ _____    ______ ____
ROOT
ATOM      1  C   UNL     1       2.935  -1.110   2.010  1.00  0.00    +0.000 C 
ATOM      2  C   UNL     1       2.320  -1.753   0.763  1.00  0.00    +0.000 C 
ATOM      3  C   UNL     1       3.386  -1.835  -0.334  1.00  0.00    +0.000 C 
ATOM      4  C   UNL     1       4.589  -2.622   0.193  1.00  0.00    +0.000 C 
ATOM      5  C   UNL     1       4.155  -1.926   2.447  1.00  0.00    +0.000 C 
ATOM      6  O   UNL     1       5.093  -1.989   1.370  1.00  0.00    +0.000 OA
ENDROOT
BRANCH   5   7
ATOM      7  O   UNL     1       4.766  -1.302   3.576  1.00  0.00    +0.000 OA
ATOM      8  H   UNL     1       4.737  -1.833   4.384  1.00  0.00    +0.000 HD
ENDBRANCH   5   7
BRANCH   1   9
ATOM      9  O   UNL     1       1.970  -1.095   3.064  1.00  0.00    +0.000 OA
ATOM     10  H   UNL     1       1.572  -0.227   3.221  1.00  0.00    +0.000 HD
ENDBRANCH   1   9
BRANCH   2  11
ATOM     11  O   UNL     1       1.225  -0.958   0.305  1.00  0.00    +0.000 OA
ATOM     12  H   UNL     1       1.438  -0.021   0.195  1.00  0.00    +0.000 HD
ENDBRANCH   2  11
BRANCH   3  13
ATOM     13  O   UNL     1       2.845  -2.499  -1.478  1.00  0.00    +0.000 OA
ATOM     14  H   UNL     1       2.671  -3.440  -1.341  1.00  0.00    +0.000 HD
ENDBRANCH   3  13
BRANCH   4  15
ATOM     15  C   UNL     1       5.684  -2.658  -0.876  1.00  0.00    +0.000 C 
BRANCH  15  16
ATOM     16  O   UNL     1       5.393  -3.688  -1.821  1.00  0.00    +0.000 OA
ATOM     17  H   UNL     1       4.663  -4.267  -1.560  1.00  0.00    +0.000 HD
ENDBRANCH  15  16
ENDBRANCH   4  15
TORSDOF 6
ENDMDL
MODEL 3
REMARK VINA RESULT:    -4.992      1.023      3.934
REMARK INTER + INTRA:          -6.059
REMARK INTER:                  -5.850
REMARK INTRA:                  -0.209
REMARK UNBOUND:                -0.045
REMARK  Name = BGC
REMARK  6 active torsions:
REMARK  status: ('A' for Active; 'I' for Inactive)
REMARK    1  A    between atoms: C_1  and  O_8
REMARK    2  A    between atoms: C_2  and  O_9
REMARK    3  A    between atoms: C_3  and  O_10
REMARK    4  A    between atoms: C_4  and  C_5
REMARK    5  A    between atoms: C_5  and  O_12
REMARK    6  A    between atoms: C_6  and  O_7
REMARK                            x       y       z     vdW  Elec       q    Type
REMARK                         _______ _______ _______ _____ _____    ______ ____
ROOT
ATOM      1  C   UNL     1       5.307  -2.047   1.236  1.00  0.00    +0.000 C 
ATOM      2  C   UNL     1       4.678  -1.946  -0.156  1.00  0.00    +0.000 C 
ATOM      3  C   UNL     1       3.206  -2.363  -0.070  1.00  0.00    +0.000 C 
ATOM      4  C   UNL     1       2.492  -1.480   0.956  1.00  0.00    +0.000 C 
ATOM      5  C   UNL     1       4.512  -1.175   2.212  1.00  0.00    +0.000 C 
ATOM      6  O   UNL     1       3.146  -1.597   2.221  1.00  0.00    +0.000 OA
ENDROOT
BRANCH   5   7
ATOM      7  O   UNL     1       5.060  -1.308   3.525  1.00  0.00    +0.000 OA
ATOM      8  H   UNL     1       4.979  -2.197   3.897  1.00  0.00    +0.000 HD
ENDBRANCH   5   7
BRANCH   1   9
ATOM      9  O   UNL     1       6.661  -1.591   1.183  1.00  0.00    +0.000 OA
ATOM     10  H   UNL     1       6.801  -0.727   1.595  1.00  0.00    +0.000 HD
ENDBRANCH   1   9
BRANCH   2  11
ATOM     11  O   UNL     1       5.368  -2.813  -1.058  1.00  0.00    +0.000 OA
ATOM     12  H   UNL     1       4.823  -3.532  -1.406  1.00  0.00    +0.000 HD
ENDBRANCH   2  11
BRANCH   3  13
ATOM     13  O   UNL     1       2.589  -2.204  -1.349  1.00  0.00    +0.000 OA
ATOM     14  H   UNL     1       1.690  -2.559  -1.399  1.00  0.00    +0.000 HD
ENDBRANCH   3  13
BRANCH   4  15
ATOM     15  C   UNL     1       1.036  -1.930   1.092  1.00  0.00    +0.000 C 
BRANCH  15  16
ATOM     16  O   UNL     1       0.873  -3.207   0.473  1.00  0.00    +0.000 OA
ATOM     17  H   UNL     1       1.009  -3.955   1.071  1.00  0.00    +0.000 HD
ENDBRANCH  15  16
ENDBRANCH   4  15
TORSDOF 6
ENDMDL
MODEL 4
REMARK VINA RESULT:    -4.835      1.224      4.147
REMARK INTER + INTRA:          -5.869
REMARK INTER:                  -5.835
REMARK INTRA:                  -0.034
REMARK UNBOUND:                -0.045
REMARK  Name = BGC
REMARK  6 active torsions:
REMARK  status: ('A' for Active; 'I' for Inactive)
REMARK    1  A    between atoms: C_1  and  O_8
REMARK    2  A    between atoms: C_2  and  O_9
REMARK    3  A    between atoms: C_3  and  O_10
REMARK    4  A    between atoms: C_4  and  C_5
REMARK    5  A    between atoms: C_5  and  O_12
REMARK    6  A    between atoms: C_6  and  O_7
REMARK                            x       y       z     vdW  Elec       q    Type
REMARK                         _______ _______ _______ _____ _____    ______ ____
ROOT
ATOM      1  C   UNL     1       3.407  -2.630  -0.108  1.00  0.00    +0.000 C 
ATOM      2  C   UNL     1       2.290  -2.074   0.780  1.00  0.00    +0.000 C 
ATOM      3  C   UNL     1       2.689  -2.244   2.250  1.00  0.00    +0.000 C 
ATOM      4  C   UNL     1       4.027  -1.540   2.491  1.00  0.00    +0.000 C 
ATOM      5  C   UNL     1       4.717  -1.910   0.224  1.00  0.00    +0.000 C 
ATOM      6  O   UNL     1       5.014  -2.082   1.612  1.00  0.00    +0.000 OA
ENDROOT
BRANCH   5   7
ATOM      7  O   UNL     1       5.775  -2.461  -0.561  1.00  0.00    +0.000 OA
ATOM      8  H   UNL     1       6.422  -1.809  -0.863  1.00  0.00    +0.000 HD
ENDBRANCH   5   7
BRANCH   1   9
ATOM      9  O   UNL     1       3.078  -2.411  -1.481  1.00  0.00    +0.000 OA
ATOM     10  H   UNL     1       2.478  -1.668  -1.629  1.00  0.00    +0.000 HD
ENDBRANCH   1   9
BRANCH   2  11
ATOM     11  O   UNL     1       1.078  -2.790   0.530  1.00  0.00    +0.000 OA
ATOM     12  H   UNL     1       0.334  -2.507   1.079  1.00  0.00    +0.000 HD
ENDBRANCH   2  11
BRANCH   3  13
ATOM     13  O   UNL     1       1.687  -1.664   3.087  1.00  0.00    +0.000 OA
ATOM     14  H   UNL     1       1.983  -1.489   3.991  1.00  0.00    +0.000 HD
ENDBRANCH   3  13
BRANCH   4  15
ATOM     15  C   UNL     1       4.463  -1.755   3.942  1.00  0.00    +0.000 C 
BRANCH  15  16
ATOM     16  O   UNL     1       5.647  -0.998   4.201  1.00  0.00    +0.000 OA
ATOM     17  H   UNL     1       6.358  -1.508   4.612  1.00  0.00    +0.000 HD
ENDBRANCH  15  16
ENDBRANCH   4  15
TORSDOF 6
ENDMDL
MODEL 5
REMARK VINA RESULT:    -4.816      1.291      3.658
REMARK INTER + INTRA:          -5.847
REMARK INTER:                  -5.615
REMARK INTRA:                  -0.232
REMARK UNBOUND:                -0.045
REMARK  Name = BGC
REMARK  6 active torsions:
REMARK  status: ('A' for Active; 'I' for Inactive)
REMARK    1  A    between atoms: C_1  and  O_8
REMARK    2  A    between atoms: C_2  and  O_9
REMARK    3  A    between atoms: C_3  and  O_10
REMARK    4  A    between atoms: C_4  and  C_5
REMARK    5  A    between atoms: C_5  and  O_12
REMARK    6  A    between atoms: C_6  and  O_7
REMARK                            x       y       z     vdW  Elec       q    Type
REMARK                         _______ _______ _______ _____ _____    ______ ____
ROOT
ATOM      1  C   UNL     1       4.319  -1.727  -0.153  1.00  0.00    +0.000 C 
ATOM      2  C   UNL     1       4.894  -2.111   1.214  1.00  0.00    +0.000 C 
ATOM      3  C   UNL     1       3.930  -1.644   2.309  1.00  0.00    +0.000 C 
ATOM      4  C   UNL     1       2.552  -2.263   2.064  1.00  0.00    +0.000 C 
ATOM      5  C   UNL     1       2.926  -2.345  -0.304  1.00  0.00    +0.000 C 
ATOM      6  O   UNL     1       2.089  -1.894   0.764  1.00  0.00    +0.000 OA
ENDROOT
BRANCH   5   7
ATOM      7  O   UNL     1       2.361  -1.946  -1.554  1.00  0.00    +0.000 OA
ATOM      8  H   UNL     1       1.528  -1.462  -1.473  1.00  0.00    +0.000 HD
ENDBRANCH   5   7
BRANCH   1   9
ATOM      9  O   UNL     1       5.175  -2.222  -1.186  1.00  0.00    +0.000 OA
ATOM     10  H   UNL     1       6.002  -2.604  -0.862  1.00  0.00    +0.000 HD
ENDBRANCH   1   9
BRANCH   2  11
ATOM     11  O   UNL     1       6.163  -1.479   1.394  1.00  0.00    +0.000 OA
ATOM     12  H   UNL     1       6.419  -0.898   0.665  1.00  0.00    +0.000 HD
ENDBRANCH   2  11
BRANCH   3  13
ATOM     13  O   UNL     1       4.419  -2.059   3.586  1.00  0.00    +0.000 OA
ATOM     14  H   UNL     1       5.044  -1.439   3.988  1.00  0.00    +0.000 HD
ENDBRANCH   3  13
BRANCH   4  15
ATOM     15  C   UNL     1       1.567  -1.754   3.119  1.00  0.00    +0.000 C 
BRANCH  15  16
ATOM     16  O   UNL     1       1.480  -2.701   4.185  1.00  0.00    +0.000 OA
ATOM     17  H   UNL     1       2.309  -3.165   4.368  1.00  0.00    +0.000 HD
ENDBRANCH  15  16
ENDBRANCH   4  15
TORSDOF 6
ENDMDL
MODEL 6
REMARK VINA RESULT:    -4.815      1.374      4.483
REMARK INTER + INTRA:          -5.846
REMARK INTER:                  -5.801
REMARK INTRA:                  -0.045
REMARK UNBOUND:                -0.045
REMARK  Name = BGC
REMARK  6 active torsions:
REMARK  status: ('A' for Active; 'I' for Inactive)
REMARK    1  A    between atoms: C_1  and  O_8
REMARK    2  A    between atoms: C_2  and  O_9
REMARK    3  A    between atoms: C_3  and  O_10
REMARK    4  A    between atoms: C_4  and  C_5
REMARK    5  A    between atoms: C_5  and  O_12
REMARK    6  A    between atoms: C_6  and  O_7
REMARK                            x       y       z     vdW  Elec       q    Type
REMARK                         _______ _______ _______ _____ _____    ______ ____
ROOT
ATOM      1  C   UNL     1       4.654  -1.999   0.505  1.00  0.00    +0.000 C 
ATOM      2  C   UNL     1       3.230  -1.888  -0.049  1.00  0.00    +0.000 C 
ATOM      3  C   UNL     1       2.273  -2.637   0.883  1.00  0.00    +0.000 C 
ATOM      4  C   UNL     1       2.393  -2.060   2.296  1.00  0.00    +0.000 C 
ATOM      5  C   UNL     1       4.683  -1.445   1.932  1.00  0.00    +0.000 C 
ATOM      6  O   UNL     1       3.747  -2.165   2.739  1.00  0.00    +0.000 OA
ENDROOT
BRANCH   5   7
ATOM      7  O   UNL     1       5.995  -1.596   2.476  1.00  0.00    +0.000 OA
ATOM      8  H   UNL     1       6.114  -1.179   3.340  1.00  0.00    +0.000 HD
ENDBRANCH   5   7
BRANCH   1   9
ATOM      9  O   UNL     1       5.546  -1.243  -0.317  1.00  0.00    +0.000 OA
ATOM     10  H   UNL     1       6.141  -1.784  -0.854  1.00  0.00    +0.000 HD
ENDBRANCH   1   9
BRANCH   2  11
ATOM     11  O   UNL     1       3.178  -2.468  -1.354  1.00  0.00    +0.000 OA
ATOM     12  H   UNL     1       2.421  -3.054  -1.492  1.00  0.00    +0.000 HD
ENDBRANCH   2  11
BRANCH   3  13
ATOM     13  O   UNL     1       0.931  -2.480   0.416  1.00  0.00    +0.000 OA
ATOM     14  H   UNL     1       0.724  -3.005  -0.369  1.00  0.00    +0.000 HD
ENDBRANCH   3  13
BRANCH   4  15
ATOM     15  C   UNL     1       1.483  -2.842   3.246  1.00  0.00    +0.000 C 
BRANCH  15  16
ATOM     16  O   UNL     1       2.208  -3.176   4.432  1.00  0.00    +0.000 OA
ATOM     17  H   UNL     1       2.950  -2.585   4.618  1.00  0.00    +0.000 HD
ENDBRANCH  15  16
ENDBRANCH   4  15
TORSDOF 6
ENDMDL
MODEL 7
REMARK VINA RESULT:    -4.686     12.444     14.352
REMARK INTER + INTRA:          -5.690
REMARK INTER:                  -5.446
REMARK INTRA:                  -0.245
REMARK UNBOUND:                -0.045
REMARK  Name = BGC
REMARK  6 active torsions:
REMARK  status: ('A' for Active; 'I' for Inactive)
REMARK    1  A    between atoms: C_1  and  O_8
REMARK    2  A    between atoms: C_2  and  O_9
REMARK    3  A    between atoms: C_3  and  O_10
REMARK    4  A    between atoms: C_4  and  C_5
REMARK    5  A    between atoms: C_5  and  O_12
REMARK    6  A    between atoms: C_6  and  O_7
REMARK                            x       y       z     vdW  Elec       q    Type
REMARK                         _______ _______ _______ _____ _____    ______ ____
ROOT
ATOM      1  C   UNL     1      -8.403 -10.891  -0.759  1.00  0.00    +0.000 C 
ATOM      2  C   UNL     1      -7.162 -10.002  -0.888  1.00  0.00    +0.000 C 
ATOM      3  C   UNL     1      -7.302  -8.810   0.064  1.00  0.00    +0.000 C 
ATOM      4  C   UNL     1      -7.501  -9.326   1.491  1.00  0.00    +0.000 C 
ATOM      5  C   UNL     1      -8.559 -11.328   0.700  1.00  0.00    +0.000 C 
ATOM      6  O   UNL     1      -8.652 -10.171   1.534  1.00  0.00    +0.000 OA
ENDROOT
BRANCH   5   7
ATOM      7  O   UNL     1      -9.745 -12.112   0.838  1.00  0.00    +0.000 OA
ATOM      8  H   UNL     1     -10.203 -12.284   0.004  1.00  0.00    +0.000 HD
ENDBRANCH   5   7
BRANCH   1   9
ATOM      9  O   UNL     1      -8.251 -12.045  -1.589  1.00  0.00    +0.000 OA
ATOM     10  H   UNL     1      -8.694 -11.974  -2.446  1.00  0.00    +0.000 HD
ENDBRANCH   1   9
BRANCH   2  11
ATOM     11  O   UNL     1      -7.049  -9.529  -2.231  1.00  0.00    +0.000 OA
ATOM     12  H   UNL     1      -6.597  -8.678  -2.311  1.00  0.00    +0.000 HD
ENDBRANCH   2  11
BRANCH   3  13
ATOM     13  O   UNL     1      -6.118  -8.011   0.007  1.00  0.00    +0.000 OA
ATOM     14  H   UNL     1      -5.839  -7.660   0.863  1.00  0.00    +0.000 HD
ENDBRANCH   3  13
BRANCH   4  15
ATOM     15  C   UNL     1      -7.702  -8.142   2.440  1.00  0.00    +0.000 C 
BRANCH  15  16
ATOM     16  O   UNL     1      -6.436  -7.726   2.955  1.00  0.00    +0.000 OA
ATOM     17  H   UNL     1      -5.711  -8.335   2.758  1.00  0.00    +0.000 HD
ENDBRANCH  15  16
ENDBRANCH   4  15
TORSDOF 6
ENDMDL
MODEL 8
REMARK VINA RESULT:    -4.664     12.050     13.985
REMARK INTER + INTRA:          -5.664
REMARK INTER:                  -5.453
REMARK INTRA:                  -0.211
REMARK UNBOUND:                -0.045
REMARK  Name = BGC
REMARK  6 active torsions:
REMARK  status: ('A' for Active; 'I' for Inactive)
REMARK    1  A    between atoms: C_1  and  O_8
REMARK    2  A    between atoms: C_2  and  O_9
REMARK    3  A    between atoms: C_3  and  O_10
REMARK    4  A    between atoms: C_4  and  C_5
REMARK    5  A    between atoms: C_5  and  O_12
REMARK    6  A    between atoms: C_6  and  O_7
REMARK                            x       y       z     vdW  Elec       q    Type
REMARK                         _______ _______ _______ _____ _____    ______ ____
ROOT
ATOM      1  C   UNL     1      -7.663  -8.562   2.293  1.00  0.00    +0.000 C 
ATOM      2  C   UNL     1      -7.097  -8.071   0.957  1.00  0.00    +0.000 C 
ATOM      3  C   UNL     1      -7.574  -9.004  -0.160  1.00  0.00    +0.000 C 
ATOM      4  C   UNL     1      -9.104  -9.048  -0.159  1.00  0.00    +0.000 C 
ATOM      5  C   UNL     1      -9.191  -8.621   2.200  1.00  0.00    +0.000 C 
ATOM      6  O   UNL     1      -9.566  -9.481   1.121  1.00  0.00    +0.000 OA
ENDROOT
BRANCH   5   7
ATOM      7  O   UNL     1      -9.723  -9.131   3.423  1.00  0.00    +0.000 OA
ATOM      8  H   UNL     1      -9.654 -10.091   3.513  1.00  0.00    +0.000 HD
ENDBRANCH   5   7
BRANCH   1   9
ATOM      9  O   UNL     1      -7.284  -7.657   3.333  1.00  0.00    +0.000 OA
ATOM     10  H   UNL     1      -7.492  -6.732   3.145  1.00  0.00    +0.000 HD
ENDBRANCH   1   9
BRANCH   2  11
ATOM     11  O   UNL     1      -5.669  -8.081   1.010  1.00  0.00    +0.000 OA
ATOM     12  H   UNL     1      -5.309  -8.411   1.845  1.00  0.00    +0.000 HD
ENDBRANCH   2  11
BRANCH   3  13
ATOM     13  O   UNL     1      -7.111  -8.515  -1.421  1.00  0.00    +0.000 OA
ATOM     14  H   UNL     1      -6.977  -7.558  -1.446  1.00  0.00    +0.000 HD
ENDBRANCH   3  13
BRANCH   4  15
ATOM     15  C   UNL     1      -9.588 -10.024  -1.234  1.00  0.00    +0.000 C 
BRANCH  15  16
ATOM     16  O   UNL     1      -9.418  -9.434  -2.524  1.00  0.00    +0.000 OA
ATOM     17  H   UNL     1      -9.170  -8.499  -2.499  1.00  0.00    +0.000 HD
ENDBRANCH  15  16
ENDBRANCH   4  15
TORSDOF 6
ENDMDL
MODEL 9
REMARK VINA RESULT:    -4.507     12.055     14.245
REMARK INTER + INTRA:          -5.475
REMARK INTER:                  -5.440
REMARK INTRA:                  -0.035
REMARK UNBOUND:                -0.045
REMARK  Name = BGC
REMARK  6 active torsions:
REMARK  status: ('A' for Active; 'I' for Inactive)
REMARK    1  A    between atoms: C_1  and  O_8
REMARK    2  A    between atoms: C_2  and  O_9
REMARK    3  A    between atoms: C_3  and  O_10
REMARK    4  A    between atoms: C_4  and  C_5
REMARK    5  A    between atoms: C_5  and  O_12
REMARK    6  A    between atoms: C_6  and  O_7
REMARK                            x       y       z     vdW  Elec       q    Type
REMARK                         _______ _______ _______ _____ _____    ______ ____
ROOT
ATOM      1  C   UNL     1      -8.380 -10.528  -0.526  1.00  0.00    +0.000 C 
ATOM      2  C   UNL     1      -9.147 -10.182   0.753  1.00  0.00    +0.000 C 
ATOM      3  C   UNL     1      -8.187  -9.523   1.748  1.00  0.00    +0.000 C 
ATOM      4  C   UNL     1      -7.556  -8.290   1.097  1.00  0.00    +0.000 C 
ATOM      5  C   UNL     1      -7.743  -9.255  -1.091  1.00  0.00    +0.000 C 
ATOM      6  O   UNL     1      -6.886  -8.677  -0.104  1.00  0.00    +0.000 OA
ENDROOT
BRANCH   5   7
ATOM      7  O   UNL     1      -6.980  -9.579  -2.254  1.00  0.00    +0.000 OA
ATOM      8  H   UNL     1      -6.764 -10.519  -2.334  1.00  0.00    +0.000 HD
ENDBRANCH   5   7
BRANCH   1   9
ATOM      9  O   UNL     1      -9.283 -11.077  -1.490  1.00  0.00    +0.000 OA
ATOM     10  H   UNL     1     -10.045 -11.529  -1.102  1.00  0.00    +0.000 HD
ENDBRANCH   1   9
BRANCH   2  11
ATOM     11  O   UNL     1      -9.685 -11.375   1.327  1.00  0.00    +0.000 OA
ATOM     12  H   UNL     1     -10.221 -11.224   2.117  1.00  0.00    +0.000 HD
ENDBRANCH   2  11
BRANCH   3  13
ATOM     13  O   UNL     1      -8.906  -9.130   2.919  1.00  0.00    +0.000 OA
ATOM     14  H   UNL     1      -8.442  -9.316   3.746  1.00  0.00    +0.000 HD
ENDBRANCH   3  13
BRANCH   4  15
ATOM     15  C   UNL     1      -6.550  -7.661   2.063  1.00  0.00    +0.000 C 
BRANCH  15  16
ATOM     16  O   UNL     1      -5.943  -6.525   1.445  1.00  0.00    +0.000 OA
ATOM     17  H   UNL     1      -5.741  -6.648   0.507  1.00  0.00    +0.000 HD
ENDBRANCH  15  16
ENDBRANCH   4  15
TORSDOF 6
ENDMDL
