MODEL 1
REMARK VINA RESULT:    -5.500      0.000      0.000
REMARK INTER + INTRA:          -6.702
REMARK INTER:                  -6.465
REMARK INTRA:                  -0.238
REMARK UNBOUND:                -0.238
REMARK  Name = AHR
REMARK  5 active torsions:
REMARK  status: ('A' for Active; 'I' for Inactive)
REMARK    1  A    between atoms: O_1  and  C_2
REMARK    2  A    between atoms: C_2  and  C_3
REMARK    3  A    between atoms: C_5  and  O_6
REMARK    4  A    between atoms: C_7  and  O_8
REMARK    5  A    between atoms: C_9  and  O_10
REMARK                            x       y       z     vdW  Elec       q    Type
REMARK                         _______ _______ _______ _____ _____    ______ ____
ROOT
ATOM      1  C   UNL     1       4.283  -1.849   0.219  1.00  0.00    +0.000 C 
ATOM      2  O   UNL     1       4.921  -1.143   1.294  1.00  0.00    +0.000 OA
ATOM      3  C   UNL     1       3.351  -2.879   0.906  1.00  0.00    +0.000 C 
ATOM      4  C   UNL     1       2.870  -2.064   2.138  1.00  0.00    +0.000 C 
ATOM      5  C   UNL     1       4.111  -1.210   2.472  1.00  0.00    +0.000 C 
ENDROOT
BRANCH   3   6
ATOM      6  O   UNL     1       2.254  -3.232   0.061  1.00  0.00    +0.000 OA
ATOM      7  H   UNL     1       1.509  -2.675   0.324  1.00  0.00    +0.000 HD
ENDBRANCH   3   6
BRANCH   4   8
ATOM      8  O   UNL     1       2.537  -2.926   3.226  1.00  0.00    +0.000 OA
ATOM      9  H   UNL     1       3.183  -3.645   3.222  1.00  0.00    +0.000 HD
ENDBRANCH   4   8
BRANCH   5  10
ATOM     10  O   UNL     1       3.708   0.104   2.858  1.00  0.00    +0.000 OA
ATOM     11  H   UNL     1       2.903   0.307   2.362  1.00  0.00    +0.000 HD
ENDBRANCH   5  10
BRANCH   1  12
ATOM     12  C   UNL     1       5.326  -2.566  -0.639  1.00  0.00    +0.000 C 
BRANCH  12  13
ATOM     13  O   UNL     1       4.738  -3.724  -1.235  1.00  0.00    +0.000 OA
ATOM     14  H   UNL     1       4.955  -3.694  -2.177  1.00  0.00    +0.000 HD
ENDBRANCH  12  13
ENDBRANCH   1  12
TORSDOF 5
ENDMDL
MODEL 2
REMARK VINA RESULT:    -5.476      1.239      3.539
REMARK INTER + INTRA:          -6.674
REMARK INTER:                  -6.439
REMARK INTRA:                  -0.235
REMARK UNBOUND:                -0.238
REMARK  Name = AHR
REMARK  5 active torsions:
REMARK  status: ('A' for Active; 'I' for Inactive)
REMARK    1  A    between atoms: O_1  and  C_2
REMARK    2  A    between atoms: C_2  and  C_3
REMARK    3  A    between atoms: C_5  and  O_6
REMARK    4  A    between atoms: C_7  and  O_8
REMARK    5  A    between atoms: C_9  and  O_10
REMARK                            x       y       z     vdW  Elec       q    Type
REMARK                         _______ _______ _______ _____ _____    ______ ____
ROOT
ATOM      1  C   UNL     1       4.246  -2.306   1.769  1.00  0.00    +0.000 C 
ATOM      2  O   UNL     1       5.177  -2.368   0.678  1.00  0.00    +0.000 OA
ATOM      3  C   UNL     1       2.946  -1.721   1.162  1.00  0.00    +0.000 C 
ATOM      4  C   UNL     1       2.962  -2.374  -0.248  1.00  0.00    +0.000 C 
ATOM      5  C   UNL     1       4.471  -2.437  -0.564  1.00  0.00    +0.000 C 
ENDROOT
BRANCH   3   6
ATOM      6  O   UNL     1       1.796  -2.128   1.905  1.00  0.00    +0.000 OA
ATOM      7  H   UNL     1       2.037  -2.080   2.840  1.00  0.00    +0.000 HD
ENDBRANCH   3   6
BRANCH   4   8
ATOM      8  O   UNL     1       2.276  -1.559  -1.200  1.00  0.00    +0.000 OA
ATOM      9  H   UNL     1       1.370  -1.891  -1.250  1.00  0.00    +0.000 HD
ENDBRANCH   4   8
BRANCH   5  10
ATOM     10  O   UNL     1       4.778  -3.664  -1.228  1.00  0.00    +0.000 OA
ATOM     11  H   UNL     1       4.295  -4.362  -0.764  1.00  0.00    +0.000 HD
ENDBRANCH   5  10
BRANCH   1  12
ATOM     12  C   UNL     1       4.777  -1.387   2.871  1.00  0.00    +0.000 C 
BRANCH  12  13
ATOM     13  O   UNL     1       4.024  -0.174   2.883  1.00  0.00    +0.000 OA
ATOM     14  H   UNL     1       3.598  -0.101   2.017  1.00  0.00    +0.000 HD
ENDBRANCH  12  13
ENDBRANCH   1  12
TORSDOF 5
ENDMDL
MODEL 3
REMARK VINA RESULT:    -5.446      1.652      3.770
REMARK INTER + INTRA:          -6.639
REMARK INTER:                  -6.425
REMARK INTRA:                  -0.214
REMARK UNBOUND:                -0.238
REMARK  Name = AHR
REMARK  5 active torsions:
REMARK  status: ('A' for Active; 'I' for Inactive)
REMARK    1  A    between atoms: O_1  and  C_2
REMARK    2  A    between atoms: C_2  and  C_3
REMARK    3  A    between atoms: C_5  and  O_6
REMARK    4  A    between atoms: C_7  and  O_8
REMARK    5  A    between atoms: C_9  and  O_10
REMARK                            x       y       z     vdW  Elec       q    Type
REMARK                         _______ _______ _______ _____ _____    ______ ____
ROOT
ATOM      1  C   UNL     1       3.978  -1.194   1.632  1.00  0.00    +0.000 C 
ATOM      2  O   UNL     1       2.686  -1.340   1.024  1.00  0.00    +0.000 OA
ATOM      3  C   UNL     1       4.913  -2.136   0.832  1.00  0.00    +0.000 C 
ATOM      4  C   UNL     1       4.336  -1.972  -0.602  1.00  0.00    +0.000 C 
ATOM      5  C   UNL     1       2.830  -1.780  -0.330  1.00  0.00    +0.000 C 
ENDROOT
BRANCH   3   6
ATOM      6  O   UNL     1       6.271  -1.696   0.895  1.00  0.00    +0.000 OA
ATOM      7  H   UNL     1       6.278  -0.884   1.420  1.00  0.00    +0.000 HD
ENDBRANCH   3   6
BRANCH   4   8
ATOM      8  O   UNL     1       4.568  -3.144  -1.385  1.00  0.00    +0.000 OA
ATOM      9  H   UNL     1       4.449  -3.902  -0.797  1.00  0.00    +0.000 HD
ENDBRANCH   4   8
BRANCH   5  10
ATOM     10  O   UNL     1       2.296  -0.797  -1.219  1.00  0.00    +0.000 OA
ATOM     11  H   UNL     1       2.827  -0.834  -2.027  1.00  0.00    +0.000 HD
ENDBRANCH   5  10
BRANCH   1  12
ATOM     12  C   UNL     1       3.926  -1.620   3.100  1.00  0.00    +0.000 C 
BRANCH  12  13
ATOM     13  O   UNL     1       5.141  -1.241   3.749  1.00  0.00    +0.000 OA
ATOM     14  H   UNL     1       5.643  -0.711   3.114  1.00  0.00    +0.000 HD
ENDBRANCH  12  13
ENDBRANCH   1  12
TORSDOF 5
ENDMDL
MODEL 4
REMARK VINA RESULT:    -5.306      1.130      3.996
REMARK INTER + INTRA:          -6.474
REMARK INTER:                  -6.427
REMARK INTRA:                  -0.047
REMARK UNBOUND:                -0.238
REMARK  Name = AHR
REMARK  5 active torsions:
REMARK  status: ('A' for Active; 'I' for Inactive)
REMARK    1  A    between atoms: O_1  and  C_2
REMARK    2  A    between atoms: C_2  and  C_3
REMARK    3  A    between atoms: C_5  and  O_6
REMARK    4  A    between atoms: C_7  and  O_8
REMARK    5  A    between atoms: C_9  and  O_10
REMARK                            x       y       z     vdW  Elec       q    Type
REMARK                         _______ _______ _______ _____ _____    ______ ____
ROOT
ATOM      1  C   UNL     1       2.645  -2.276   1.896  1.00  0.00    +0.000 C 
ATOM      2  O   UNL     1       2.876  -3.212   0.833  1.00  0.00    +0.000 OA
ATOM      3  C   UNL     1       3.971  -1.486   2.037  1.00  0.00    +0.000 C 
ATOM      4  C   UNL     1       4.415  -1.392   0.551  1.00  0.00    +0.000 C 
ATOM      5  C   UNL     1       3.911  -2.730  -0.029  1.00  0.00    +0.000 C 
ENDROOT
BRANCH   3   6
ATOM      6  O   UNL     1       3.747  -0.189   2.592  1.00  0.00    +0.000 OA
ATOM      7  H   UNL     1       4.150  -0.188   3.470  1.00  0.00    +0.000 HD
ENDBRANCH   3   6
BRANCH   4   8
ATOM      8  O   UNL     1       5.836  -1.293   0.445  1.00  0.00    +0.000 OA
ATOM      9  H   UNL     1       6.026  -0.466  -0.018  1.00  0.00    +0.000 HD
ENDBRANCH   4   8
BRANCH   5  10
ATOM     10  O   UNL     1       3.392  -2.525  -1.344  1.00  0.00    +0.000 OA
ATOM     11  H   UNL     1       2.540  -2.077  -1.241  1.00  0.00    +0.000 HD
ENDBRANCH   5  10
BRANCH   1  12
ATOM     12  C   UNL     1       2.326  -3.015   3.196  1.00  0.00    +0.000 C 
BRANCH  12  13
ATOM     13  O   UNL     1       1.243  -2.364   3.860  1.00  0.00    +0.000 OA
ATOM     14  H   UNL     1       1.381  -2.489   4.810  1.00  0.00    +0.000 HD
ENDBRANCH  12  13
ENDBRANCH   1  12
TORSDOF 5
ENDMDL
MODEL 5
REMARK VINA RESULT:    -5.288      0.865      2.441
REMARK INTER + INTRA:          -6.453
REMARK INTER:                  -6.309
REMARK INTRA:                  -0.145
REMARK UNBOUND:                -0.238
REMARK  Name = AHR
REMARK  5 active torsions:
REMARK  status: ('A' for Active; 'I' for Inactive)
REMARK    1  A    between atoms: O_1  and  C_2
REMARK    2  A    between atoms: C_2  and  C_3
REMARK    3  A    between atoms: C_5  and  O_6
REMARK    4  A    between atoms: C_7  and  O_8
REMARK    5  A    between atoms: C_9  and  O_10
REMARK                            x       y       z     vdW  Elec       q    Type
REMARK                         _______ _______ _______ _____ _____    ______ ____
ROOT
ATOM      1  C   UNL     1       4.027  -2.978   0.624  1.00  0.00    +0.000 C 
ATOM      2  O   UNL     1       2.709  -2.978   1.192  1.00  0.00    +0.000 OA
ATOM      3  C   UNL     1       4.654  -1.626   1.052  1.00  0.00    +0.000 C 
ATOM      4  C   UNL     1       4.059  -1.466   2.479  1.00  0.00    +0.000 C 
ATOM      5  C   UNL     1       2.665  -2.109   2.328  1.00  0.00    +0.000 C 
ENDROOT
BRANCH   3   6
ATOM      6  O   UNL     1       6.079  -1.704   1.093  1.00  0.00    +0.000 OA
ATOM      7  H   UNL     1       6.403  -1.352   0.253  1.00  0.00    +0.000 HD
ENDBRANCH   3   6
BRANCH   4   8
ATOM      8  O   UNL     1       3.949  -0.088   2.837  1.00  0.00    +0.000 OA
ATOM      9  H   UNL     1       4.848   0.236   2.981  1.00  0.00    +0.000 HD
ENDBRANCH   4   8
BRANCH   5  10
ATOM     10  O   UNL     1       2.346  -2.860   3.500  1.00  0.00    +0.000 OA
ATOM     11  H   UNL     1       2.563  -2.300   4.259  1.00  0.00    +0.000 HD
ENDBRANCH   5  10
BRANCH   1  12
ATOM     12  C   UNL     1       3.951  -3.068  -0.901  1.00  0.00    +0.000 C 
BRANCH  12  13
ATOM     13  O   UNL     1       5.175  -3.599  -1.409  1.00  0.00    +0.000 OA
ATOM     14  H   UNL     1       5.360  -3.133  -2.236  1.00  0.00    +0.000 HD
ENDBRANCH  12  13
ENDBRANCH   1  12
TORSDOF 5
ENDMDL
MODEL 6
REMARK VINA RESULT:    -5.066      1.481      2.687
REMARK INTER + INTRA:          -6.193
REMARK INTER:                  -5.942
REMARK INTRA:                  -0.250
REMARK UNBOUND:                -0.238
REMARK  Name = AHR
REMARK  5 active torsions:
REMARK  status: ('A' for Active; 'I' for Inactive)
REMARK    1  A    between atoms: O_1  and  C_2
REMARK    2  A    between atoms: C_2  and  C_3
REMARK    3  A    between atoms: C_5  and  O_6
REMARK    4  A    between atoms: C_7  and  O_8
REMARK    5  A    between atoms: C_9  and  O_10
REMARK                            x       y       z     vdW  Elec       q    Type
REMARK                         _______ _______ _______ _____ _____    ______ ____
ROOT
ATOM      1  C   UNL     1       2.800  -2.184   1.271  1.00  0.00    +0.000 C 
ATOM      2  O   UNL     1       3.095  -1.134   2.204  1.00  0.00    +0.000 OA
ATOM      3  C   UNL     1       4.073  -2.323   0.399  1.00  0.00    +0.000 C 
ATOM      4  C   UNL     1       5.182  -2.055   1.454  1.00  0.00    +0.000 C 
ATOM      5  C   UNL     1       4.510  -1.020   2.381  1.00  0.00    +0.000 C 
ENDROOT
BRANCH   3   6
ATOM      6  O   UNL     1       4.188  -3.638  -0.147  1.00  0.00    +0.000 OA
ATOM      7  H   UNL     1       5.133  -3.822  -0.235  1.00  0.00    +0.000 HD
ENDBRANCH   3   6
BRANCH   4   8
ATOM      8  O   UNL     1       6.352  -1.509   0.844  1.00  0.00    +0.000 OA
ATOM      9  H   UNL     1       6.123  -1.316  -0.076  1.00  0.00    +0.000 HD
ENDBRANCH   4   8
BRANCH   5  10
ATOM     10  O   UNL     1       4.852  -1.290   3.741  1.00  0.00    +0.000 OA
ATOM     11  H   UNL     1       5.756  -0.971   3.871  1.00  0.00    +0.000 HD
ENDBRANCH   5  10
BRANCH   1  12
ATOM     12  C   UNL     1       1.601  -1.802   0.401  1.00  0.00    +0.000 C 
BRANCH  12  13
ATOM     13  O   UNL     1       2.023  -1.656  -0.955  1.00  0.00    +0.000 OA
ATOM     14  H   UNL     1       1.236  -1.768  -1.507  1.00  0.00    +0.000 HD
ENDBRANCH  12  13
ENDBRANCH   1  12
TORSDOF 5
ENDMDL
MODEL 7
REMARK VINA RESULT:    -5.032      1.491      2.042
REMARK INTER + INTRA:          -6.152
REMARK INTER:                  -5.970
REMARK INTRA:                  -0.182
REMARK UNBOUND:                -0.238
REMARK  Name = AHR
REMARK  5 active torsions:
REMARK  status: ('A' for Active; 'I' for Inactive)
REMARK    1  A    between atoms: O_1  and  C_2
REMARK    2  A    between atoms: C_2  and  C_3
REMARK    3  A    between atoms: C_5  and  O_6
REMARK    4  A    between atoms: C_7  and  O_8
REMARK    5  A    between atoms: C_9  and  O_10
REMARK                            x       y       z     vdW  Elec       q    Type
REMARK                         _______ _______ _______ _____ _____    ______ ____
ROOT
ATOM      1  C   UNL     1       4.204  -1.937   0.483  1.00  0.00    +0.000 C 
ATOM      2  O   UNL     1       4.006  -2.767   1.638  1.00  0.00    +0.000 OA
ATOM      3  C   UNL     1       2.899  -2.072  -0.342  1.00  0.00    +0.000 C 
ATOM      4  C   UNL     1       1.842  -2.161   0.793  1.00  0.00    +0.000 C 
ATOM      5  C   UNL     1       2.608  -2.921   1.897  1.00  0.00    +0.000 C 
ENDROOT
BRANCH   3   6
ATOM      6  O   UNL     1       2.681  -0.922  -1.161  1.00  0.00    +0.000 OA
ATOM      7  H   UNL     1       2.410  -0.206  -0.570  1.00  0.00    +0.000 HD
ENDBRANCH   3   6
BRANCH   4   8
ATOM      8  O   UNL     1       0.694  -2.898   0.369  1.00  0.00    +0.000 OA
ATOM      9  H   UNL     1       0.048  -2.252   0.054  1.00  0.00    +0.000 HD
ENDBRANCH   4   8
BRANCH   5  10
ATOM     10  O   UNL     1       2.288  -2.373   3.176  1.00  0.00    +0.000 OA
ATOM     11  H   UNL     1       3.128  -2.192   3.621  1.00  0.00    +0.000 HD
ENDBRANCH   5  10
BRANCH   1  12
ATOM     12  C   UNL     1       5.400  -2.433  -0.330  1.00  0.00    +0.000 C 
BRANCH  12  13
ATOM     13  O   UNL     1       4.939  -3.255  -1.403  1.00  0.00    +0.000 OA
ATOM     14  H   UNL     1       4.120  -3.675  -1.101  1.00  0.00    +0.000 HD
ENDBRANCH  12  13
ENDBRANCH   1  12
TORSDOF 5
ENDMDL
MODEL 8
REMARK VINA RESULT:    -4.696      1.617      3.337
REMARK INTER + INTRA:          -5.758
REMARK INTER:                  -5.669
REMARK INTRA:                  -0.088
REMARK UNBOUND:                -0.238
REMARK  Name = AHR
REMARK  5 active torsions:
REMARK  status: ('A' for Active; 'I' for Inactive)
REMARK    1  A    between atoms: O_1  and  C_2
REMARK    2  A    between atoms: C_2  and  C_3
REMARK    3  A    between atoms: C_5  and  O_6
REMARK    4  A    between atoms: C_7  and  O_8
REMARK    5  A    between atoms: C_9  and  O_10
REMARK                            x       y       z     vdW  Elec       q    Type
REMARK                         _______ _______ _______ _____ _____    ______ ____
ROOT
ATOM      1  C   UNL     1       3.331  -2.730   2.068  1.00  0.00    +0.000 C 
ATOM      2  O   UNL     1       4.416  -1.807   2.251  1.00  0.00    +0.000 OA
ATOM      3  C   UNL     1       2.662  -2.311   0.734  1.00  0.00    +0.000 C 
ATOM      4  C   UNL     1       3.904  -1.879  -0.094  1.00  0.00    +0.000 C 
ATOM      5  C   UNL     1       4.827  -1.278   0.987  1.00  0.00    +0.000 C 
ENDROOT
BRANCH   3   6
ATOM      6  O   UNL     1       1.992  -3.413   0.121  1.00  0.00    +0.000 OA
ATOM      7  H   UNL     1       1.317  -3.712   0.745  1.00  0.00    +0.000 HD
ENDBRANCH   3   6
BRANCH   4   8
ATOM      8  O   UNL     1       3.555  -0.896  -1.069  1.00  0.00    +0.000 OA
ATOM      9  H   UNL     1       4.097  -1.071  -1.850  1.00  0.00    +0.000 HD
ENDBRANCH   4   8
BRANCH   5  10
ATOM     10  O   UNL     1       6.183  -1.643   0.727  1.00  0.00    +0.000 OA
ATOM     11  H   UNL     1       6.307  -2.533   1.085  1.00  0.00    +0.000 HD
ENDBRANCH   5  10
BRANCH   1  12
ATOM     12  C   UNL     1       2.333  -2.615   3.221  1.00  0.00    +0.000 C 
BRANCH  12  13
ATOM     13  O   UNL     1       1.514  -1.461   3.029  1.00  0.00    +0.000 OA
ATOM     14  H   UNL     1       0.600  -1.739   3.182  1.00  0.00    +0.000 HD
ENDBRANCH  12  13
ENDBRANCH   1  12
TORSDOF 5
ENDMDL
MODEL 9
REMARK VINA RESULT:    -4.498      1.522      2.835
REMARK INTER + INTRA:          -5.524
REMARK INTER:                  -5.285
REMARK INTRA:                  -0.239
REMARK UNBOUND:                -0.238
REMARK  Name = AHR
REMARK  5 active torsions:
REMARK  status: ('A' for Active; 'I' for Inactive)
REMARK    1  A    between atoms: O_1  and  C_2
REMARK    2  A    between atoms: C_2  and  C_3
REMARK    3  A    between atoms: C_5  and  O_6
REMARK    4  A    between atoms: C_7  and  O_8
REMARK    5  A    between atoms: C_9  and  O_10
REMARK                            x       y       z     vdW  Elec       q    Type
REMARK                         _______ _______ _______ _____ _____    ______ ____
ROOT
ATOM      1  C   UNL     1       4.176  -2.435   0.813  1.00  0.00    +0.000 C 
ATOM      2  O   UNL     1       3.081  -2.330  -0.109  1.00  0.00    +0.000 OA
ATOM      3  C   UNL     1       3.758  -1.583   2.039  1.00  0.00    +0.000 C 
ATOM      4  C   UNL     1       2.232  -1.872   2.089  1.00  0.00    +0.000 C 
ATOM      5  C   UNL     1       1.875  -2.019   0.595  1.00  0.00    +0.000 C 
ENDROOT
BRANCH   3   6
ATOM      6  O   UNL     1       4.407  -2.032   3.229  1.00  0.00    +0.000 OA
ATOM      7  H   UNL     1       5.057  -1.356   3.464  1.00  0.00    +0.000 HD
ENDBRANCH   3   6
BRANCH   4   8
ATOM      8  O   UNL     1       1.522  -0.781   2.677  1.00  0.00    +0.000 OA
ATOM      9  H   UNL     1       2.183  -0.128   2.943  1.00  0.00    +0.000 HD
ENDBRANCH   4   8
BRANCH   5  10
ATOM     10  O   UNL     1       0.927  -3.074   0.423  1.00  0.00    +0.000 OA
ATOM     11  H   UNL     1       0.049  -2.668   0.451  1.00  0.00    +0.000 HD
ENDBRANCH   5  10
BRANCH   1  12
ATOM     12  C   UNL     1       5.454  -1.874   0.188  1.00  0.00    +0.000 C 
BRANCH  12  13
ATOM     13  O   UNL     1       6.423  -1.644   1.212  1.00  0.00    +0.000 OA
ATOM     14  H   UNL     1       7.045  -2.385   1.179  1.00  0.00    +0.000 HD
ENDBRANCH  12  13
ENDBRANCH   1  12
TORSDOF 5
ENDMDL
